s 17.893127407 _1_ AGT  --- 0 cbr 512 [0 0 0 0] ------- [1:0 2:0 32 0] [0] 0 2
r 17.893127407 _1_ RTR  --- 0 cbr 512 [0 0 0 0] ------- [1:0 2:0 32 0] [0] 0 2
s 17.893127407 _1_ RTR  --- 0 AODV 48 [0 0 0 0] ------- [1:255 -1:255 30 0] [0x2 1 1 [2 0] [1 4]] (REQUEST)
s 17.893242407 _1_ MAC  --- 0 AODV 106 [0 ffffffff 1 800] ------- [1:255 -1:255 30 0] [0x2 1 1 [2 0] [1 4]] (REQUEST)
r 17.894090952 _39_ MAC  --- 0 AODV 48 [0 ffffffff 1 800] ------- [1:255 -1:255 30 0] [0x2 1 1 [2 0] [1 4]] (REQUEST)
r 17.894090959 _14_ MAC  --- 0 AODV 48 [0 ffffffff 1 800] ------- [1:255 -1:255 30 0] [0x2 1 1 [2 0] [1 4]] (REQUEST)
r 17.894091101 _17_ MAC  --- 0 AODV 48 [0 ffffffff 1 800] ------- [1:255 -1:255 30 0] [0x2 1 1 [2 0] [1 4]] (REQUEST)
r 17.894091202 _35_ MAC  --- 0 AODV 48 [0 ffffffff 1 800] ------- [1:255 -1:255 30 0] [0x2 1 1 [2 0] [1 4]] (REQUEST)
r 17.894115952 _39_ RTR  --- 0 AODV 48 [0 ffffffff 1 800] ------- [1:255 -1:255 30 0] [0x2 1 1 [2 0] [1 4]] (REQUEST)
r 17.894115959 _14_ RTR  --- 0 AODV 48 [0 ffffffff 1 800] ------- [1:255 -1:255 30 0] [0x2 1 1 [2 0] [1 4]] (REQUEST)
r 17.894116101 _17_ RTR  --- 0 AODV 48 [0 ffffffff 1 800] ------- [1:255 -1:255 30 0] [0x2 1 1 [2 0] [1 4]] (REQUEST)
r 17.894116202 _35_ RTR  --- 0 AODV 48 [0 ffffffff 1 800] ------- [1:255 -1:255 30 0] [0x2 1 1 [2 0] [1 4]] (REQUEST)
s 17.894997178 _39_ RTR  --- 0 AODV 48 [0 ffffffff 1 800] ------- [39:255 -1:255 29 0] [0x2 2 1 [2 0] [1 4]] (REQUEST)
s 17.895272178 _39_ MAC  --- 0 AODV 106 [0 ffffffff 27 800] ------- [39:255 -1:255 29 0] [0x2 2 1 [2 0] [1 4]] (REQUEST)
r 17.896120465 _35_ MAC  --- 0 AODV 48 [0 ffffffff 27 800] ------- [39:255 -1:255 29 0] [0x2 2 1 [2 0] [1 4]] (REQUEST)
r 17.896120723 _1_ MAC  --- 0 AODV 48 [0 ffffffff 27 800] ------- [39:255 -1:255 29 0] [0x2 2 1 [2 0] [1 4]] (REQUEST)
r 17.896120730 _18_ MAC  --- 0 AODV 48 [0 ffffffff 27 800] ------- [39:255 -1:255 29 0] [0x2 2 1 [2 0] [1 4]] (REQUEST)
r 17.896120808 _6_ MAC  --- 0 AODV 48 [0 ffffffff 27 800] ------- [39:255 -1:255 29 0] [0x2 2 1 [2 0] [1 4]] (REQUEST)
r 17.896120864 _36_ MAC  --- 0 AODV 48 [0 ffffffff 27 800] ------- [39:255 -1:255 29 0] [0x2 2 1 [2 0] [1 4]] (REQUEST)
r 17.896145465 _35_ RTR  --- 0 AODV 48 [0 ffffffff 27 800] ------- [39:255 -1:255 29 0] [0x2 2 1 [2 0] [1 4]] (REQUEST)
r 17.896145723 _1_ RTR  --- 0 AODV 48 [0 ffffffff 27 800] ------- [39:255 -1:255 29 0] [0x2 2 1 [2 0] [1 4]] (REQUEST)
r 17.896145730 _18_ RTR  --- 0 AODV 48 [0 ffffffff 27 800] ------- [39:255 -1:255 29 0] [0x2 2 1 [2 0] [1 4]] (REQUEST)
r 17.896145808 _6_ RTR  --- 0 AODV 48 [0 ffffffff 27 800] ------- [39:255 -1:255 29 0] [0x2 2 1 [2 0] [1 4]] (REQUEST)
r 17.896145864 _36_ RTR  --- 0 AODV 48 [0 ffffffff 27 800] ------- [39:255 -1:255 29 0] [0x2 2 1 [2 0] [1 4]] (REQUEST)
s 17.897245820 _35_ RTR  --- 0 AODV 48 [0 ffffffff 1 800] ------- [35:255 -1:255 29 0] [0x2 2 1 [2 0] [1 4]] (REQUEST)
s 17.897360820 _35_ MAC  --- 0 AODV 106 [0 ffffffff 23 800] ------- [35:255 -1:255 29 0] [0x2 2 1 [2 0] [1 4]] (REQUEST)
r 17.898209107 _39_ MAC  --- 0 AODV 48 [0 ffffffff 23 800] ------- [35:255 -1:255 29 0] [0x2 2 1 [2 0] [1 4]] (REQUEST)
r 17.898209156 _18_ MAC  --- 0 AODV 48 [0 ffffffff 23 800] ------- [35:255 -1:255 29 0] [0x2 2 1 [2 0] [1 4]] (REQUEST)
r 17.898209220 _36_ MAC  --- 0 AODV 48 [0 ffffffff 23 800] ------- [35:255 -1:255 29 0] [0x2 2 1 [2 0] [1 4]] (REQUEST)
r 17.898209337 _6_ MAC  --- 0 AODV 48 [0 ffffffff 23 800] ------- [35:255 -1:255 29 0] [0x2 2 1 [2 0] [1 4]] (REQUEST)
r 17.898209615 _1_ MAC  --- 0 AODV 48 [0 ffffffff 23 800] ------- [35:255 -1:255 29 0] [0x2 2 1 [2 0] [1 4]] (REQUEST)
r 17.898234107 _39_ RTR  --- 0 AODV 48 [0 ffffffff 23 800] ------- [35:255 -1:255 29 0] [0x2 2 1 [2 0] [1 4]] (REQUEST)
r 17.898234156 _18_ RTR  --- 0 AODV 48 [0 ffffffff 23 800] ------- [35:255 -1:255 29 0] [0x2 2 1 [2 0] [1 4]] (REQUEST)
r 17.898234220 _36_ RTR  --- 0 AODV 48 [0 ffffffff 23 800] ------- [35:255 -1:255 29 0] [0x2 2 1 [2 0] [1 4]] (REQUEST)
r 17.898234337 _6_ RTR  --- 0 AODV 48 [0 ffffffff 23 800] ------- [35:255 -1:255 29 0] [0x2 2 1 [2 0] [1 4]] (REQUEST)
r 17.898234615 _1_ RTR  --- 0 AODV 48 [0 ffffffff 23 800] ------- [35:255 -1:255 29 0] [0x2 2 1 [2 0] [1 4]] (REQUEST)
s 17.898527693 _14_ RTR  --- 0 AODV 48 [0 ffffffff 1 800] ------- [14:255 -1:255 29 0] [0x2 2 1 [2 0] [1 4]] (REQUEST)
s 17.898784160 _14_ MAC  --- 0 AODV 106 [0 ffffffff e 800] ------- [14:255 -1:255 29 0] [0x2 2 1 [2 0] [1 4]] (REQUEST)
s 17.899236599 _6_ RTR  --- 0 AODV 48 [0 ffffffff 27 800] ------- [6:255 -1:255 28 0] [0x2 3 1 [2 0] [1 4]] (REQUEST)
r 17.899632555 _17_ MAC  --- 0 AODV 48 [0 ffffffff e 800] ------- [14:255 -1:255 29 0] [0x2 2 1 [2 0] [1 4]] (REQUEST)
r 17.899632712 _1_ MAC  --- 0 AODV 48 [0 ffffffff e 800] ------- [14:255 -1:255 29 0] [0x2 2 1 [2 0] [1 4]] (REQUEST)
r 17.899632735 _33_ MAC  --- 0 AODV 48 [0 ffffffff e 800] ------- [14:255 -1:255 29 0] [0x2 2 1 [2 0] [1 4]] (REQUEST)
r 17.899632821 _15_ MAC  --- 0 AODV 48 [0 ffffffff e 800] ------- [14:255 -1:255 29 0] [0x2 2 1 [2 0] [1 4]] (REQUEST)
r 17.899632837 _19_ MAC  --- 0 AODV 48 [0 ffffffff e 800] ------- [14:255 -1:255 29 0] [0x2 2 1 [2 0] [1 4]] (REQUEST)
r 17.899632903 _31_ MAC  --- 0 AODV 48 [0 ffffffff e 800] ------- [14:255 -1:255 29 0] [0x2 2 1 [2 0] [1 4]] (REQUEST)
r 17.899632957 _8_ MAC  --- 0 AODV 48 [0 ffffffff e 800] ------- [14:255 -1:255 29 0] [0x2 2 1 [2 0] [1 4]] (REQUEST)
r 17.899657555 _17_ RTR  --- 0 AODV 48 [0 ffffffff e 800] ------- [14:255 -1:255 29 0] [0x2 2 1 [2 0] [1 4]] (REQUEST)
r 17.899657712 _1_ RTR  --- 0 AODV 48 [0 ffffffff e 800] ------- [14:255 -1:255 29 0] [0x2 2 1 [2 0] [1 4]] (REQUEST)
r 17.899657735 _33_ RTR  --- 0 AODV 48 [0 ffffffff e 800] ------- [14:255 -1:255 29 0] [0x2 2 1 [2 0] [1 4]] (REQUEST)
r 17.899657821 _15_ RTR  --- 0 AODV 48 [0 ffffffff e 800] ------- [14:255 -1:255 29 0] [0x2 2 1 [2 0] [1 4]] (REQUEST)
r 17.899657837 _19_ RTR  --- 0 AODV 48 [0 ffffffff e 800] ------- [14:255 -1:255 29 0] [0x2 2 1 [2 0] [1 4]] (REQUEST)
r 17.899657903 _31_ RTR  --- 0 AODV 48 [0 ffffffff e 800] ------- [14:255 -1:255 29 0] [0x2 2 1 [2 0] [1 4]] (REQUEST)
r 17.899657957 _8_ RTR  --- 0 AODV 48 [0 ffffffff e 800] ------- [14:255 -1:255 29 0] [0x2 2 1 [2 0] [1 4]] (REQUEST)
s 17.900407807 _6_ MAC  --- 0 AODV 106 [0 ffffffff 6 800] ------- [6:255 -1:255 28 0] [0x2 3 1 [2 0] [1 4]] (REQUEST)
s 17.900599226 _19_ RTR  --- 0 AODV 48 [0 ffffffff e 800] ------- [19:255 -1:255 28 0] [0x2 3 1 [2 0] [1 4]] (REQUEST)
s 17.900894226 _19_ MAC  --- 0 AODV 106 [0 ffffffff 13 800] ------- [19:255 -1:255 28 0] [0x2 3 1 [2 0] [1 4]] (REQUEST)
r 17.901256325 _35_ MAC  --- 0 AODV 48 [0 ffffffff 6 800] ------- [6:255 -1:255 28 0] [0x2 3 1 [2 0] [1 4]] (REQUEST)
r 17.901256437 _39_ MAC  --- 0 AODV 48 [0 ffffffff 6 800] ------- [6:255 -1:255 28 0] [0x2 3 1 [2 0] [1 4]] (REQUEST)
r 17.901256452 _36_ MAC  --- 0 AODV 48 [0 ffffffff 6 800] ------- [6:255 -1:255 28 0] [0x2 3 1 [2 0] [1 4]] (REQUEST)
r 17.901256603 _18_ MAC  --- 0 AODV 48 [0 ffffffff 6 800] ------- [6:255 -1:255 28 0] [0x2 3 1 [2 0] [1 4]] (REQUEST)
r 17.901281325 _35_ RTR  --- 0 AODV 48 [0 ffffffff 6 800] ------- [6:255 -1:255 28 0] [0x2 3 1 [2 0] [1 4]] (REQUEST)
r 17.901281437 _39_ RTR  --- 0 AODV 48 [0 ffffffff 6 800] ------- [6:255 -1:255 28 0] [0x2 3 1 [2 0] [1 4]] (REQUEST)
r 17.901281452 _36_ RTR  --- 0 AODV 48 [0 ffffffff 6 800] ------- [6:255 -1:255 28 0] [0x2 3 1 [2 0] [1 4]] (REQUEST)
r 17.901281603 _18_ RTR  --- 0 AODV 48 [0 ffffffff 6 800] ------- [6:255 -1:255 28 0] [0x2 3 1 [2 0] [1 4]] (REQUEST)
s 17.901405874 _15_ RTR  --- 0 AODV 48 [0 ffffffff e 800] ------- [15:255 -1:255 28 0] [0x2 3 1 [2 0] [1 4]] (REQUEST)
r 17.901742348 _31_ MAC  --- 0 AODV 48 [0 ffffffff 13 800] ------- [19:255 -1:255 28 0] [0x2 3 1 [2 0] [1 4]] (REQUEST)
r 17.901742556 _7_ MAC  --- 0 AODV 48 [0 ffffffff 13 800] ------- [19:255 -1:255 28 0] [0x2 3 1 [2 0] [1 4]] (REQUEST)
r 17.901742843 _3_ MAC  --- 0 AODV 48 [0 ffffffff 13 800] ------- [19:255 -1:255 28 0] [0x2 3 1 [2 0] [1 4]] (REQUEST)
r 17.901742875 _29_ MAC  --- 0 AODV 48 [0 ffffffff 13 800] ------- [19:255 -1:255 28 0] [0x2 3 1 [2 0] [1 4]] (REQUEST)
r 17.901742894 _11_ MAC  --- 0 AODV 48 [0 ffffffff 13 800] ------- [19:255 -1:255 28 0] [0x2 3 1 [2 0] [1 4]] (REQUEST)
D 17.901742898 _32_ MAC  COL 0 AODV 106 [0 ffffffff 13 800] ------- [19:255 -1:255 28 0] [0x2 3 1 [2 0] [1 4]] (REQUEST)
D 17.901742903 _14_ MAC  COL 0 AODV 106 [0 ffffffff 13 800] ------- [19:255 -1:255 28 0] [0x2 3 1 [2 0] [1 4]] (REQUEST)
r 17.901742931 _33_ MAC  --- 0 AODV 48 [0 ffffffff 13 800] ------- [19:255 -1:255 28 0] [0x2 3 1 [2 0] [1 4]] (REQUEST)
r 17.901742952 _15_ MAC  --- 0 AODV 48 [0 ffffffff 13 800] ------- [19:255 -1:255 28 0] [0x2 3 1 [2 0] [1 4]] (REQUEST)
r 17.901742988 _24_ MAC  --- 0 AODV 48 [0 ffffffff 13 800] ------- [19:255 -1:255 28 0] [0x2 3 1 [2 0] [1 4]] (REQUEST)
r 17.901767348 _31_ RTR  --- 0 AODV 48 [0 ffffffff 13 800] ------- [19:255 -1:255 28 0] [0x2 3 1 [2 0] [1 4]] (REQUEST)
r 17.901767556 _7_ RTR  --- 0 AODV 48 [0 ffffffff 13 800] ------- [19:255 -1:255 28 0] [0x2 3 1 [2 0] [1 4]] (REQUEST)
r 17.901767843 _3_ RTR  --- 0 AODV 48 [0 ffffffff 13 800] ------- [19:255 -1:255 28 0] [0x2 3 1 [2 0] [1 4]] (REQUEST)
r 17.901767875 _29_ RTR  --- 0 AODV 48 [0 ffffffff 13 800] ------- [19:255 -1:255 28 0] [0x2 3 1 [2 0] [1 4]] (REQUEST)
r 17.901767894 _11_ RTR  --- 0 AODV 48 [0 ffffffff 13 800] ------- [19:255 -1:255 28 0] [0x2 3 1 [2 0] [1 4]] (REQUEST)
r 17.901767931 _33_ RTR  --- 0 AODV 48 [0 ffffffff 13 800] ------- [19:255 -1:255 28 0] [0x2 3 1 [2 0] [1 4]] (REQUEST)
r 17.901767952 _15_ RTR  --- 0 AODV 48 [0 ffffffff 13 800] ------- [19:255 -1:255 28 0] [0x2 3 1 [2 0] [1 4]] (REQUEST)
r 17.901767988 _24_ RTR  --- 0 AODV 48 [0 ffffffff 13 800] ------- [19:255 -1:255 28 0] [0x2 3 1 [2 0] [1 4]] (REQUEST)
s 17.902032952 _15_ MAC  --- 0 AODV 106 [0 ffffffff f 800] ------- [15:255 -1:255 28 0] [0x2 3 1 [2 0] [1 4]] (REQUEST)
s 17.902107655 _17_ RTR  --- 0 AODV 48 [0 ffffffff 1 800] ------- [17:255 -1:255 29 0] [0x2 2 1 [2 0] [1 4]] (REQUEST)
s 17.902534381 _18_ RTR  --- 0 AODV 48 [0 ffffffff 27 800] ------- [18:255 -1:255 28 0] [0x2 3 1 [2 0] [1 4]] (REQUEST)
r 17.902881041 _33_ MAC  --- 0 AODV 48 [0 ffffffff f 800] ------- [15:255 -1:255 28 0] [0x2 3 1 [2 0] [1 4]] (REQUEST)
r 17.902881360 _29_ MAC  --- 0 AODV 48 [0 ffffffff f 800] ------- [15:255 -1:255 28 0] [0x2 3 1 [2 0] [1 4]] (REQUEST)
r 17.902881467 _17_ MAC  --- 0 AODV 48 [0 ffffffff f 800] ------- [15:255 -1:255 28 0] [0x2 3 1 [2 0] [1 4]] (REQUEST)
r 17.902881528 _8_ MAC  --- 0 AODV 48 [0 ffffffff f 800] ------- [15:255 -1:255 28 0] [0x2 3 1 [2 0] [1 4]] (REQUEST)
r 17.902881534 _24_ MAC  --- 0 AODV 48 [0 ffffffff f 800] ------- [15:255 -1:255 28 0] [0x2 3 1 [2 0] [1 4]] (REQUEST)
r 17.902881613 _14_ MAC  --- 0 AODV 48 [0 ffffffff f 800] ------- [15:255 -1:255 28 0] [0x2 3 1 [2 0] [1 4]] (REQUEST)
r 17.902881630 _31_ MAC  --- 0 AODV 48 [0 ffffffff f 800] ------- [15:255 -1:255 28 0] [0x2 3 1 [2 0] [1 4]] (REQUEST)
r 17.902881652 _2_ MAC  --- 0 AODV 48 [0 ffffffff f 800] ------- [15:255 -1:255 28 0] [0x2 3 1 [2 0] [1 4]] (REQUEST)
r 17.902881678 _19_ MAC  --- 0 AODV 48 [0 ffffffff f 800] ------- [15:255 -1:255 28 0] [0x2 3 1 [2 0] [1 4]] (REQUEST)
r 17.902906041 _33_ RTR  --- 0 AODV 48 [0 ffffffff f 800] ------- [15:255 -1:255 28 0] [0x2 3 1 [2 0] [1 4]] (REQUEST)
r 17.902906360 _29_ RTR  --- 0 AODV 48 [0 ffffffff f 800] ------- [15:255 -1:255 28 0] [0x2 3 1 [2 0] [1 4]] (REQUEST)
r 17.902906467 _17_ RTR  --- 0 AODV 48 [0 ffffffff f 800] ------- [15:255 -1:255 28 0] [0x2 3 1 [2 0] [1 4]] (REQUEST)
r 17.902906528 _8_ RTR  --- 0 AODV 48 [0 ffffffff f 800] ------- [15:255 -1:255 28 0] [0x2 3 1 [2 0] [1 4]] (REQUEST)
r 17.902906534 _24_ RTR  --- 0 AODV 48 [0 ffffffff f 800] ------- [15:255 -1:255 28 0] [0x2 3 1 [2 0] [1 4]] (REQUEST)
r 17.902906613 _14_ RTR  --- 0 AODV 48 [0 ffffffff f 800] ------- [15:255 -1:255 28 0] [0x2 3 1 [2 0] [1 4]] (REQUEST)
r 17.902906630 _31_ RTR  --- 0 AODV 48 [0 ffffffff f 800] ------- [15:255 -1:255 28 0] [0x2 3 1 [2 0] [1 4]] (REQUEST)
r 17.902906652 _2_ RTR  --- 0 AODV 48 [0 ffffffff f 800] ------- [15:255 -1:255 28 0] [0x2 3 1 [2 0] [1 4]] (REQUEST)
s 17.902906652 _2_ RTR  --- 0 AODV 44 [0 0 0 0] ------- [2:255 1:255 30 15] [0x4 1 [2 4] 10.000000] (REPLY)
r 17.902906678 _19_ RTR  --- 0 AODV 48 [0 ffffffff f 800] ------- [15:255 -1:255 28 0] [0x2 3 1 [2 0] [1 4]] (REQUEST)
s 17.902909381 _18_ MAC  --- 0 AODV 106 [0 ffffffff 12 800] ------- [18:255 -1:255 28 0] [0x2 3 1 [2 0] [1 4]] (REQUEST)
s 17.903101652 _2_ MAC  --- 0 ARP 86 [0 ffffffff 2 806] ------- [REQUEST 2/2 0/15]
s 17.903145367 _8_ RTR  --- 0 AODV 48 [0 ffffffff e 800] ------- [8:255 -1:255 28 0] [0x2 3 1 [2 0] [1 4]] (REQUEST)
r 17.903757688 _36_ MAC  --- 0 AODV 48 [0 ffffffff 12 800] ------- [18:255 -1:255 28 0] [0x2 3 1 [2 0] [1 4]] (REQUEST)
r 17.903757718 _35_ MAC  --- 0 AODV 48 [0 ffffffff 12 800] ------- [18:255 -1:255 28 0] [0x2 3 1 [2 0] [1 4]] (REQUEST)
r 17.903757933 _39_ MAC  --- 0 AODV 48 [0 ffffffff 12 800] ------- [18:255 -1:255 28 0] [0x2 3 1 [2 0] [1 4]] (REQUEST)
r 17.903758103 _38_ MAC  --- 0 AODV 48 [0 ffffffff 12 800] ------- [18:255 -1:255 28 0] [0x2 3 1 [2 0] [1 4]] (REQUEST)
r 17.903758106 _28_ MAC  --- 0 AODV 48 [0 ffffffff 12 800] ------- [18:255 -1:255 28 0] [0x2 3 1 [2 0] [1 4]] (REQUEST)
r 17.903758177 _6_ MAC  --- 0 AODV 48 [0 ffffffff 12 800] ------- [18:255 -1:255 28 0] [0x2 3 1 [2 0] [1 4]] (REQUEST)
r 17.903782688 _36_ RTR  --- 0 AODV 48 [0 ffffffff 12 800] ------- [18:255 -1:255 28 0] [0x2 3 1 [2 0] [1 4]] (REQUEST)
r 17.903782718 _35_ RTR  --- 0 AODV 48 [0 ffffffff 12 800] ------- [18:255 -1:255 28 0] [0x2 3 1 [2 0] [1 4]] (REQUEST)
r 17.903782933 _39_ RTR  --- 0 AODV 48 [0 ffffffff 12 800] ------- [18:255 -1:255 28 0] [0x2 3 1 [2 0] [1 4]] (REQUEST)
r 17.903783103 _38_ RTR  --- 0 AODV 48 [0 ffffffff 12 800] ------- [18:255 -1:255 28 0] [0x2 3 1 [2 0] [1 4]] (REQUEST)
r 17.903783106 _28_ RTR  --- 0 AODV 48 [0 ffffffff 12 800] ------- [18:255 -1:255 28 0] [0x2 3 1 [2 0] [1 4]] (REQUEST)
r 17.903783177 _6_ RTR  --- 0 AODV 48 [0 ffffffff 12 800] ------- [18:255 -1:255 28 0] [0x2 3 1 [2 0] [1 4]] (REQUEST)
D 17.903790066 _8_ MAC  COL 0 ARP 86 [0 ffffffff 2 806] ------- [REQUEST 2/2 0/15]
r 17.903790153 _13_ MAC  --- 0 ARP 28 [0 ffffffff 2 806] ------- [REQUEST 2/2 0/15]
r 17.903790172 _5_ MAC  --- 0 ARP 28 [0 ffffffff 2 806] ------- [REQUEST 2/2 0/15]
r 17.903790209 _22_ MAC  --- 0 ARP 28 [0 ffffffff 2 806] ------- [REQUEST 2/2 0/15]
r 17.903790244 _25_ MAC  --- 0 ARP 28 [0 ffffffff 2 806] ------- [REQUEST 2/2 0/15]
r 17.903790353 _15_ MAC  --- 0 ARP 28 [0 ffffffff 2 806] ------- [REQUEST 2/2 0/15]
r 17.903790376 _33_ MAC  --- 0 ARP 28 [0 ffffffff 2 806] ------- [REQUEST 2/2 0/15]
r 17.903790378 _4_ MAC  --- 0 ARP 28 [0 ffffffff 2 806] ------- [REQUEST 2/2 0/15]
D 17.903790406 _21_ MAC  COL 0 ARP 86 [0 ffffffff 2 806] ------- [REQUEST 2/2 0/15]
D 17.903790441 _17_ MAC  COL 0 ARP 86 [0 ffffffff 2 806] ------- [REQUEST 2/2 0/15]
r 17.903790466 _30_ MAC  --- 0 ARP 28 [0 ffffffff 2 806] ------- [REQUEST 2/2 0/15]
s 17.903894302 _33_ RTR  --- 0 AODV 48 [0 ffffffff e 800] ------- [33:255 -1:255 28 0] [0x2 3 1 [2 0] [1 4]] (REQUEST)
s 17.903939488 _11_ RTR  --- 0 AODV 48 [0 ffffffff 13 800] ------- [11:255 -1:255 27 0] [0x2 4 1 [2 0] [1 4]] (REQUEST)
s 17.904040353 _15_ MAC  --- 0 RTS 44 [52e 2 f 0] 
s 17.904180244 _24_ RTR  --- 0 AODV 48 [0 ffffffff 13 800] ------- [24:255 -1:255 27 0] [0x2 4 1 [2 0] [1 4]] (REQUEST)
r 17.904393053 _2_ MAC  --- 0 RTS 44 [52e 2 f 0] 
s 17.904403053 _2_ MAC  --- 0 CTS 38 [3f4 f 0 0] 
s 17.904509099 _36_ RTR  --- 0 AODV 48 [0 ffffffff 27 800] ------- [36:255 -1:255 28 0] [0x2 3 1 [2 0] [1 4]] (REQUEST)
s 17.904644099 _36_ MAC  --- 0 AODV 106 [0 ffffffff 24 800] ------- [36:255 -1:255 28 0] [0x2 3 1 [2 0] [1 4]] (REQUEST)
r 17.904707753 _15_ MAC  --- 0 CTS 38 [3f4 f 0 0] 
s 17.904717753 _15_ MAC  --- 0 ARP 86 [13a 2 f 806] ------- [REPLY 15/15 2/2]
r 17.905406454 _2_ MAC  --- 0 ARP 28 [13a 2 f 806] ------- [REPLY 15/15 2/2]
s 17.905416454 _2_ MAC  --- 0 ACK 38 [0 f 0 0] 
r 17.905492406 _18_ MAC  --- 0 AODV 48 [0 ffffffff 24 800] ------- [36:255 -1:255 28 0] [0x2 3 1 [2 0] [1 4]] (REQUEST)
r 17.905492499 _35_ MAC  --- 0 AODV 48 [0 ffffffff 24 800] ------- [36:255 -1:255 28 0] [0x2 3 1 [2 0] [1 4]] (REQUEST)
r 17.905492744 _6_ MAC  --- 0 AODV 48 [0 ffffffff 24 800] ------- [36:255 -1:255 28 0] [0x2 3 1 [2 0] [1 4]] (REQUEST)
r 17.905492784 _39_ MAC  --- 0 AODV 48 [0 ffffffff 24 800] ------- [36:255 -1:255 28 0] [0x2 3 1 [2 0] [1 4]] (REQUEST)
r 17.905517406 _18_ RTR  --- 0 AODV 48 [0 ffffffff 24 800] ------- [36:255 -1:255 28 0] [0x2 3 1 [2 0] [1 4]] (REQUEST)
r 17.905517499 _35_ RTR  --- 0 AODV 48 [0 ffffffff 24 800] ------- [36:255 -1:255 28 0] [0x2 3 1 [2 0] [1 4]] (REQUEST)
r 17.905517744 _6_ RTR  --- 0 AODV 48 [0 ffffffff 24 800] ------- [36:255 -1:255 28 0] [0x2 3 1 [2 0] [1 4]] (REQUEST)
r 17.905517784 _39_ RTR  --- 0 AODV 48 [0 ffffffff 24 800] ------- [36:255 -1:255 28 0] [0x2 3 1 [2 0] [1 4]] (REQUEST)
s 17.905656759 _28_ RTR  --- 0 AODV 48 [0 ffffffff 12 800] ------- [28:255 -1:255 27 0] [0x2 4 1 [2 0] [1 4]] (REQUEST)
r 17.905721154 _15_ MAC  --- 0 ACK 38 [0 f 0 0] 
s 17.905850867 _8_ MAC  --- 0 AODV 106 [0 ffffffff 8 800] ------- [8:255 -1:255 28 0] [0x2 3 1 [2 0] [1 4]] (REQUEST)
r 17.906699273 _17_ MAC  --- 0 AODV 48 [0 ffffffff 8 800] ------- [8:255 -1:255 28 0] [0x2 3 1 [2 0] [1 4]] (REQUEST)
r 17.906699281 _2_ MAC  --- 0 AODV 48 [0 ffffffff 8 800] ------- [8:255 -1:255 28 0] [0x2 3 1 [2 0] [1 4]] (REQUEST)
r 17.906699308 _21_ MAC  --- 0 AODV 48 [0 ffffffff 8 800] ------- [8:255 -1:255 28 0] [0x2 3 1 [2 0] [1 4]] (REQUEST)
r 17.906699412 _33_ MAC  --- 0 AODV 48 [0 ffffffff 8 800] ------- [8:255 -1:255 28 0] [0x2 3 1 [2 0] [1 4]] (REQUEST)
r 17.906699444 _15_ MAC  --- 0 AODV 48 [0 ffffffff 8 800] ------- [8:255 -1:255 28 0] [0x2 3 1 [2 0] [1 4]] (REQUEST)
r 17.906699586 _13_ MAC  --- 0 AODV 48 [0 ffffffff 8 800] ------- [8:255 -1:255 28 0] [0x2 3 1 [2 0] [1 4]] (REQUEST)
r 17.906699665 _14_ MAC  --- 0 AODV 48 [0 ffffffff 8 800] ------- [8:255 -1:255 28 0] [0x2 3 1 [2 0] [1 4]] (REQUEST)
r 17.906724273 _17_ RTR  --- 0 AODV 48 [0 ffffffff 8 800] ------- [8:255 -1:255 28 0] [0x2 3 1 [2 0] [1 4]] (REQUEST)
r 17.906724281 _2_ RTR  --- 0 AODV 48 [0 ffffffff 8 800] ------- [8:255 -1:255 28 0] [0x2 3 1 [2 0] [1 4]] (REQUEST)
r 17.906724308 _21_ RTR  --- 0 AODV 48 [0 ffffffff 8 800] ------- [8:255 -1:255 28 0] [0x2 3 1 [2 0] [1 4]] (REQUEST)
r 17.906724412 _33_ RTR  --- 0 AODV 48 [0 ffffffff 8 800] ------- [8:255 -1:255 28 0] [0x2 3 1 [2 0] [1 4]] (REQUEST)
r 17.906724444 _15_ RTR  --- 0 AODV 48 [0 ffffffff 8 800] ------- [8:255 -1:255 28 0] [0x2 3 1 [2 0] [1 4]] (REQUEST)
r 17.906724586 _13_ RTR  --- 0 AODV 48 [0 ffffffff 8 800] ------- [8:255 -1:255 28 0] [0x2 3 1 [2 0] [1 4]] (REQUEST)
r 17.906724665 _14_ RTR  --- 0 AODV 48 [0 ffffffff 8 800] ------- [8:255 -1:255 28 0] [0x2 3 1 [2 0] [1 4]] (REQUEST)
s 17.906789273 _17_ MAC  --- 0 AODV 106 [0 ffffffff 11 800] ------- [17:255 -1:255 29 0] [0x2 2 1 [2 0] [1 4]] (REQUEST)
r 17.907637668 _14_ MAC  --- 0 AODV 48 [0 ffffffff 11 800] ------- [17:255 -1:255 29 0] [0x2 2 1 [2 0] [1 4]] (REQUEST)
r 17.907637679 _8_ MAC  --- 0 AODV 48 [0 ffffffff 11 800] ------- [17:255 -1:255 29 0] [0x2 2 1 [2 0] [1 4]] (REQUEST)
r 17.907637706 _33_ MAC  --- 0 AODV 48 [0 ffffffff 11 800] ------- [17:255 -1:255 29 0] [0x2 2 1 [2 0] [1 4]] (REQUEST)
r 17.907637788 _15_ MAC  --- 0 AODV 48 [0 ffffffff 11 800] ------- [17:255 -1:255 29 0] [0x2 2 1 [2 0] [1 4]] (REQUEST)
r 17.907637859 _21_ MAC  --- 0 AODV 48 [0 ffffffff 11 800] ------- [17:255 -1:255 29 0] [0x2 2 1 [2 0] [1 4]] (REQUEST)
r 17.907637967 _1_ MAC  --- 0 AODV 48 [0 ffffffff 11 800] ------- [17:255 -1:255 29 0] [0x2 2 1 [2 0] [1 4]] (REQUEST)
r 17.907638062 _2_ MAC  --- 0 AODV 48 [0 ffffffff 11 800] ------- [17:255 -1:255 29 0] [0x2 2 1 [2 0] [1 4]] (REQUEST)
r 17.907662668 _14_ RTR  --- 0 AODV 48 [0 ffffffff 11 800] ------- [17:255 -1:255 29 0] [0x2 2 1 [2 0] [1 4]] (REQUEST)
r 17.907662679 _8_ RTR  --- 0 AODV 48 [0 ffffffff 11 800] ------- [17:255 -1:255 29 0] [0x2 2 1 [2 0] [1 4]] (REQUEST)
r 17.907662706 _33_ RTR  --- 0 AODV 48 [0 ffffffff 11 800] ------- [17:255 -1:255 29 0] [0x2 2 1 [2 0] [1 4]] (REQUEST)
r 17.907662788 _15_ RTR  --- 0 AODV 48 [0 ffffffff 11 800] ------- [17:255 -1:255 29 0] [0x2 2 1 [2 0] [1 4]] (REQUEST)
r 17.907662859 _21_ RTR  --- 0 AODV 48 [0 ffffffff 11 800] ------- [17:255 -1:255 29 0] [0x2 2 1 [2 0] [1 4]] (REQUEST)
r 17.907662967 _1_ RTR  --- 0 AODV 48 [0 ffffffff 11 800] ------- [17:255 -1:255 29 0] [0x2 2 1 [2 0] [1 4]] (REQUEST)
r 17.907663062 _2_ RTR  --- 0 AODV 48 [0 ffffffff 11 800] ------- [17:255 -1:255 29 0] [0x2 2 1 [2 0] [1 4]] (REQUEST)
s 17.907727706 _33_ MAC  --- 0 AODV 106 [0 ffffffff 21 800] ------- [33:255 -1:255 28 0] [0x2 3 1 [2 0] [1 4]] (REQUEST)
s 17.907728189 _31_ RTR  --- 0 AODV 48 [0 ffffffff e 800] ------- [31:255 -1:255 28 0] [0x2 3 1 [2 0] [1 4]] (REQUEST)
s 17.907825178 _38_ RTR  --- 0 AODV 48 [0 ffffffff 12 800] ------- [38:255 -1:255 27 0] [0x2 4 1 [2 0] [1 4]] (REQUEST)
r 17.908575796 _15_ MAC  --- 0 AODV 48 [0 ffffffff 21 800] ------- [33:255 -1:255 28 0] [0x2 3 1 [2 0] [1 4]] (REQUEST)
r 17.908576139 _17_ MAC  --- 0 AODV 48 [0 ffffffff 21 800] ------- [33:255 -1:255 28 0] [0x2 3 1 [2 0] [1 4]] (REQUEST)
r 17.908576182 _29_ MAC  --- 0 AODV 48 [0 ffffffff 21 800] ------- [33:255 -1:255 28 0] [0x2 3 1 [2 0] [1 4]] (REQUEST)
r 17.908576251 _8_ MAC  --- 0 AODV 48 [0 ffffffff 21 800] ------- [33:255 -1:255 28 0] [0x2 3 1 [2 0] [1 4]] (REQUEST)
r 17.908576281 _14_ MAC  --- 0 AODV 48 [0 ffffffff 21 800] ------- [33:255 -1:255 28 0] [0x2 3 1 [2 0] [1 4]] (REQUEST)
r 17.908576362 _24_ MAC  --- 0 AODV 48 [0 ffffffff 21 800] ------- [33:255 -1:255 28 0] [0x2 3 1 [2 0] [1 4]] (REQUEST)
r 17.908576378 _31_ MAC  --- 0 AODV 48 [0 ffffffff 21 800] ------- [33:255 -1:255 28 0] [0x2 3 1 [2 0] [1 4]] (REQUEST)
r 17.908576411 _19_ MAC  --- 0 AODV 48 [0 ffffffff 21 800] ------- [33:255 -1:255 28 0] [0x2 3 1 [2 0] [1 4]] (REQUEST)
r 17.908576429 _2_ MAC  --- 0 AODV 48 [0 ffffffff 21 800] ------- [33:255 -1:255 28 0] [0x2 3 1 [2 0] [1 4]] (REQUEST)
r 17.908600796 _15_ RTR  --- 0 AODV 48 [0 ffffffff 21 800] ------- [33:255 -1:255 28 0] [0x2 3 1 [2 0] [1 4]] (REQUEST)
r 17.908601139 _17_ RTR  --- 0 AODV 48 [0 ffffffff 21 800] ------- [33:255 -1:255 28 0] [0x2 3 1 [2 0] [1 4]] (REQUEST)
r 17.908601182 _29_ RTR  --- 0 AODV 48 [0 ffffffff 21 800] ------- [33:255 -1:255 28 0] [0x2 3 1 [2 0] [1 4]] (REQUEST)
r 17.908601251 _8_ RTR  --- 0 AODV 48 [0 ffffffff 21 800] ------- [33:255 -1:255 28 0] [0x2 3 1 [2 0] [1 4]] (REQUEST)
r 17.908601281 _14_ RTR  --- 0 AODV 48 [0 ffffffff 21 800] ------- [33:255 -1:255 28 0] [0x2 3 1 [2 0] [1 4]] (REQUEST)
r 17.908601362 _24_ RTR  --- 0 AODV 48 [0 ffffffff 21 800] ------- [33:255 -1:255 28 0] [0x2 3 1 [2 0] [1 4]] (REQUEST)
r 17.908601378 _31_ RTR  --- 0 AODV 48 [0 ffffffff 21 800] ------- [33:255 -1:255 28 0] [0x2 3 1 [2 0] [1 4]] (REQUEST)
r 17.908601411 _19_ RTR  --- 0 AODV 48 [0 ffffffff 21 800] ------- [33:255 -1:255 28 0] [0x2 3 1 [2 0] [1 4]] (REQUEST)
r 17.908601429 _2_ RTR  --- 0 AODV 48 [0 ffffffff 21 800] ------- [33:255 -1:255 28 0] [0x2 3 1 [2 0] [1 4]] (REQUEST)
s 17.908626378 _31_ MAC  --- 0 AODV 106 [0 ffffffff 1f 800] ------- [31:255 -1:255 28 0] [0x2 3 1 [2 0] [1 4]] (REQUEST)
s 17.908690624 _7_ RTR  --- 0 AODV 48 [0 ffffffff 13 800] ------- [7:255 -1:255 27 0] [0x2 4 1 [2 0] [1 4]] (REQUEST)
s 17.909211253 _38_ MAC  --- 0 AODV 106 [0 ffffffff 26 800] ------- [38:255 -1:255 27 0] [0x2 4 1 [2 0] [1 4]] (REQUEST)
D 17.909212536 _14_ MAC  COL 0 AODV 106 [0 ffffffff 1f 800] ------- [31:255 -1:255 28 0] [0x2 3 1 [2 0] [1 4]] (REQUEST)
s 17.909294523 _13_ RTR  --- 0 AODV 48 [0 ffffffff 8 800] ------- [13:255 -1:255 27 0] [0x2 4 1 [2 0] [1 4]] (REQUEST)
r 17.909474499 _19_ MAC  --- 0 AODV 48 [0 ffffffff 1f 800] ------- [31:255 -1:255 28 0] [0x2 3 1 [2 0] [1 4]] (REQUEST)
r 17.909474765 _7_ MAC  --- 0 AODV 48 [0 ffffffff 1f 800] ------- [31:255 -1:255 28 0] [0x2 3 1 [2 0] [1 4]] (REQUEST)
r 17.909474923 _29_ MAC  --- 0 AODV 48 [0 ffffffff 1f 800] ------- [31:255 -1:255 28 0] [0x2 3 1 [2 0] [1 4]] (REQUEST)
r 17.909474963 _11_ MAC  --- 0 AODV 48 [0 ffffffff 1f 800] ------- [31:255 -1:255 28 0] [0x2 3 1 [2 0] [1 4]] (REQUEST)
r 17.909475016 _3_ MAC  --- 0 AODV 48 [0 ffffffff 1f 800] ------- [31:255 -1:255 28 0] [0x2 3 1 [2 0] [1 4]] (REQUEST)
r 17.909475024 _24_ MAC  --- 0 AODV 48 [0 ffffffff 1f 800] ------- [31:255 -1:255 28 0] [0x2 3 1 [2 0] [1 4]] (REQUEST)
r 17.909475049 _33_ MAC  --- 0 AODV 48 [0 ffffffff 1f 800] ------- [31:255 -1:255 28 0] [0x2 3 1 [2 0] [1 4]] (REQUEST)
r 17.909475056 _15_ MAC  --- 0 AODV 48 [0 ffffffff 1f 800] ------- [31:255 -1:255 28 0] [0x2 3 1 [2 0] [1 4]] (REQUEST)
r 17.909475168 _32_ MAC  --- 0 AODV 48 [0 ffffffff 1f 800] ------- [31:255 -1:255 28 0] [0x2 3 1 [2 0] [1 4]] (REQUEST)
r 17.909499499 _19_ RTR  --- 0 AODV 48 [0 ffffffff 1f 800] ------- [31:255 -1:255 28 0] [0x2 3 1 [2 0] [1 4]] (REQUEST)
r 17.909499765 _7_ RTR  --- 0 AODV 48 [0 ffffffff 1f 800] ------- [31:255 -1:255 28 0] [0x2 3 1 [2 0] [1 4]] (REQUEST)
r 17.909499923 _29_ RTR  --- 0 AODV 48 [0 ffffffff 1f 800] ------- [31:255 -1:255 28 0] [0x2 3 1 [2 0] [1 4]] (REQUEST)
r 17.909499963 _11_ RTR  --- 0 AODV 48 [0 ffffffff 1f 800] ------- [31:255 -1:255 28 0] [0x2 3 1 [2 0] [1 4]] (REQUEST)
r 17.909500016 _3_ RTR  --- 0 AODV 48 [0 ffffffff 1f 800] ------- [31:255 -1:255 28 0] [0x2 3 1 [2 0] [1 4]] (REQUEST)
r 17.909500024 _24_ RTR  --- 0 AODV 48 [0 ffffffff 1f 800] ------- [31:255 -1:255 28 0] [0x2 3 1 [2 0] [1 4]] (REQUEST)
r 17.909500049 _33_ RTR  --- 0 AODV 48 [0 ffffffff 1f 800] ------- [31:255 -1:255 28 0] [0x2 3 1 [2 0] [1 4]] (REQUEST)
r 17.909500056 _15_ RTR  --- 0 AODV 48 [0 ffffffff 1f 800] ------- [31:255 -1:255 28 0] [0x2 3 1 [2 0] [1 4]] (REQUEST)
r 17.909500168 _32_ RTR  --- 0 AODV 48 [0 ffffffff 1f 800] ------- [31:255 -1:255 28 0] [0x2 3 1 [2 0] [1 4]] (REQUEST)
s 17.909684765 _7_ MAC  --- 0 AODV 106 [0 ffffffff 7 800] ------- [7:255 -1:255 27 0] [0x2 4 1 [2 0] [1 4]] (REQUEST)
r 17.910059513 _28_ MAC  --- 0 AODV 48 [0 ffffffff 26 800] ------- [38:255 -1:255 27 0] [0x2 4 1 [2 0] [1 4]] (REQUEST)
r 17.910059814 _9_ MAC  --- 0 AODV 48 [0 ffffffff 26 800] ------- [38:255 -1:255 27 0] [0x2 4 1 [2 0] [1 4]] (REQUEST)
r 17.910059824 _20_ MAC  --- 0 AODV 48 [0 ffffffff 26 800] ------- [38:255 -1:255 27 0] [0x2 4 1 [2 0] [1 4]] (REQUEST)
r 17.910059974 _18_ MAC  --- 0 AODV 48 [0 ffffffff 26 800] ------- [38:255 -1:255 27 0] [0x2 4 1 [2 0] [1 4]] (REQUEST)
D 17.910059998 _21_ MAC  COL 0 AODV 106 [0 ffffffff 26 800] ------- [38:255 -1:255 27 0] [0x2 4 1 [2 0] [1 4]] (REQUEST)
r 17.910084513 _28_ RTR  --- 0 AODV 48 [0 ffffffff 26 800] ------- [38:255 -1:255 27 0] [0x2 4 1 [2 0] [1 4]] (REQUEST)
r 17.910084814 _9_ RTR  --- 0 AODV 48 [0 ffffffff 26 800] ------- [38:255 -1:255 27 0] [0x2 4 1 [2 0] [1 4]] (REQUEST)
r 17.910084824 _20_ RTR  --- 0 AODV 48 [0 ffffffff 26 800] ------- [38:255 -1:255 27 0] [0x2 4 1 [2 0] [1 4]] (REQUEST)
r 17.910084974 _18_ RTR  --- 0 AODV 48 [0 ffffffff 26 800] ------- [38:255 -1:255 27 0] [0x2 4 1 [2 0] [1 4]] (REQUEST)
s 17.910166127 _29_ RTR  --- 0 AODV 48 [0 ffffffff 13 800] ------- [29:255 -1:255 27 0] [0x2 4 1 [2 0] [1 4]] (REQUEST)
s 17.910229513 _28_ MAC  --- 0 AODV 106 [0 ffffffff 1c 800] ------- [28:255 -1:255 27 0] [0x2 4 1 [2 0] [1 4]] (REQUEST)
s 17.910388516 _3_ RTR  --- 0 AODV 48 [0 ffffffff 13 800] ------- [3:255 -1:255 27 0] [0x2 4 1 [2 0] [1 4]] (REQUEST)
r 17.910533077 _3_ MAC  --- 0 AODV 48 [0 ffffffff 7 800] ------- [7:255 -1:255 27 0] [0x2 4 1 [2 0] [1 4]] (REQUEST)
r 17.910533095 _19_ MAC  --- 0 AODV 48 [0 ffffffff 7 800] ------- [7:255 -1:255 27 0] [0x2 4 1 [2 0] [1 4]] (REQUEST)
r 17.910533153 _31_ MAC  --- 0 AODV 48 [0 ffffffff 7 800] ------- [7:255 -1:255 27 0] [0x2 4 1 [2 0] [1 4]] (REQUEST)
r 17.910533318 _32_ MAC  --- 0 AODV 48 [0 ffffffff 7 800] ------- [7:255 -1:255 27 0] [0x2 4 1 [2 0] [1 4]] (REQUEST)
r 17.910533378 _11_ MAC  --- 0 AODV 48 [0 ffffffff 7 800] ------- [7:255 -1:255 27 0] [0x2 4 1 [2 0] [1 4]] (REQUEST)
r 17.910533391 _27_ MAC  --- 0 AODV 48 [0 ffffffff 7 800] ------- [7:255 -1:255 27 0] [0x2 4 1 [2 0] [1 4]] (REQUEST)
r 17.910533531 _0_ MAC  --- 0 AODV 48 [0 ffffffff 7 800] ------- [7:255 -1:255 27 0] [0x2 4 1 [2 0] [1 4]] (REQUEST)
r 17.910558077 _3_ RTR  --- 0 AODV 48 [0 ffffffff 7 800] ------- [7:255 -1:255 27 0] [0x2 4 1 [2 0] [1 4]] (REQUEST)
r 17.910558095 _19_ RTR  --- 0 AODV 48 [0 ffffffff 7 800] ------- [7:255 -1:255 27 0] [0x2 4 1 [2 0] [1 4]] (REQUEST)
r 17.910558153 _31_ RTR  --- 0 AODV 48 [0 ffffffff 7 800] ------- [7:255 -1:255 27 0] [0x2 4 1 [2 0] [1 4]] (REQUEST)
r 17.910558318 _32_ RTR  --- 0 AODV 48 [0 ffffffff 7 800] ------- [7:255 -1:255 27 0] [0x2 4 1 [2 0] [1 4]] (REQUEST)
r 17.910558378 _11_ RTR  --- 0 AODV 48 [0 ffffffff 7 800] ------- [7:255 -1:255 27 0] [0x2 4 1 [2 0] [1 4]] (REQUEST)
r 17.910558391 _27_ RTR  --- 0 AODV 48 [0 ffffffff 7 800] ------- [7:255 -1:255 27 0] [0x2 4 1 [2 0] [1 4]] (REQUEST)
r 17.910558531 _0_ RTR  --- 0 AODV 48 [0 ffffffff 7 800] ------- [7:255 -1:255 27 0] [0x2 4 1 [2 0] [1 4]] (REQUEST)
s 17.910603077 _3_ MAC  --- 0 AODV 106 [0 ffffffff 3 800] ------- [3:255 -1:255 27 0] [0x2 4 1 [2 0] [1 4]] (REQUEST)
r 17.911077773 _38_ MAC  --- 0 AODV 48 [0 ffffffff 1c 800] ------- [28:255 -1:255 27 0] [0x2 4 1 [2 0] [1 4]] (REQUEST)
r 17.911077843 _20_ MAC  --- 0 AODV 48 [0 ffffffff 1c 800] ------- [28:255 -1:255 27 0] [0x2 4 1 [2 0] [1 4]] (REQUEST)
r 17.911077996 _9_ MAC  --- 0 AODV 48 [0 ffffffff 1c 800] ------- [28:255 -1:255 27 0] [0x2 4 1 [2 0] [1 4]] (REQUEST)
r 17.911078238 _18_ MAC  --- 0 AODV 48 [0 ffffffff 1c 800] ------- [28:255 -1:255 27 0] [0x2 4 1 [2 0] [1 4]] (REQUEST)
r 17.911102773 _38_ RTR  --- 0 AODV 48 [0 ffffffff 1c 800] ------- [28:255 -1:255 27 0] [0x2 4 1 [2 0] [1 4]] (REQUEST)