n -t * -s 0  -x 575 -y 532 -Z 0 -z 20  -v circle -c green
n -t * -s 1  -x 789 -y 530 -Z 0 -z 20  -v circle -c green
n -t * -s 2  -x 1008 -y 515 -Z 0 -z 20  -v circle -c green
n -t * -s 3  -x 1241 -y 489 -Z 0 -z 20  -v circle -c green
n -t * -s 4  -x 1478 -y 474 -Z 0 -z 20  -v circle -c green
V -t * -v 1.0a5 -a 0
W -t * -x 1578 -y 632
A -t * -n 1 -p 0 -o 0x7fffffff -c 30 -a 1
A -t * -h 1 -m 1073741823 -s 0
+ -t 1.000000000 -s 0 -d -1 -p cbr -e 1 -c 2 -a 0 -i 0 -k AGT 
- -t 1.000000000 -s 0 -d -1 -p cbr -e 1 -c 2 -a 0 -i 0 -k AGT
h -t 1.000000000 -s 0 -d -1 -p cbr -e 1 -c 2 -a 0 -i 0 -k AGT
+ -t 1.000000000 -s 0 -d -1 -p AOMDV -e 52 -c 2 -a 0 -i 0 -k RTR 
- -t 1.000000000 -s 0 -d -1 -p AOMDV -e 52 -c 2 -a 0 -i 0 -k RTR
h -t 1.000000000 -s 0 -d -1 -p AOMDV -e 52 -c 2 -a 0 -i 0 -k RTR
+ -t 1.000075000 -s 0 -d -1 -p AOMDV -e 110 -c 2 -a 0 -i 0 -k MAC 
- -t 1.000075000 -s 0 -d -1 -p AOMDV -e 110 -c 2 -a 0 -i 0 -k MAC
h -t 1.000075000 -s 0 -d -1 -p AOMDV -e 110 -c 2 -a 0 -i 0 -k MAC
r -t 1.000955713 -s 1 -d -1 -p AOMDV -e 52 -c 2 -a 0 -i 0 -k MAC
r -t 1.000980713 -s 1 -d -1 -p AOMDV -e 52 -c 2 -a 0 -i 0 -k RTR
+ -t 1.009145474 -s 1 -d -1 -p AOMDV -e 52 -c 2 -a 0 -i 0 -k RTR 
- -t 1.009145474 -s 1 -d -1 -p AOMDV -e 52 -c 2 -a 0 -i 0 -k RTR
h -t 1.009145474 -s 1 -d -1 -p AOMDV -e 52 -c 2 -a 0 -i 0 -k RTR
+ -t 1.009460474 -s 1 -d -1 -p AOMDV -e 110 -c 2 -a 0 -i 0 -k MAC 
- -t 1.009460474 -s 1 -d -1 -p AOMDV -e 110 -c 2 -a 0 -i 0 -k MAC
h -t 1.009460474 -s 1 -d -1 -p AOMDV -e 110 -c 2 -a 0 -i 0 -k MAC
r -t 1.010341187 -s 0 -d -1 -p AOMDV -e 52 -c 2 -a 0 -i 0 -k MAC
r -t 1.010341206 -s 2 -d -1 -p AOMDV -e 52 -c 2 -a 0 -i 0 -k MAC
r -t 1.010366187 -s 0 -d -1 -p AOMDV -e 52 -c 2 -a 0 -i 0 -k RTR
r -t 1.010366206 -s 2 -d -1 -p AOMDV -e 52 -c 2 -a 0 -i 0 -k RTR
+ -t 1.013456996 -s 2 -d -1 -p AOMDV -e 52 -c 2 -a 0 -i 0 -k RTR 
- -t 1.013456996 -s 2 -d -1 -p AOMDV -e 52 -c 2 -a 0 -i 0 -k RTR
h -t 1.013456996 -s 2 -d -1 -p AOMDV -e 52 -c 2 -a 0 -i 0 -k RTR
+ -t 1.013771996 -s 2 -d -1 -p AOMDV -e 110 -c 2 -a 0 -i 0 -k MAC 
- -t 1.013771996 -s 2 -d -1 -p AOMDV -e 110 -c 2 -a 0 -i 0 -k MAC
h -t 1.013771996 -s 2 -d -1 -p AOMDV -e 110 -c 2 -a 0 -i 0 -k MAC
r -t 1.014652728 -s 1 -d -1 -p AOMDV -e 52 -c 2 -a 0 -i 0 -k MAC
r -t 1.014652778 -s 3 -d -1 -p AOMDV -e 52 -c 2 -a 0 -i 0 -k MAC
r -t 1.014677728 -s 1 -d -1 -p AOMDV -e 52 -c 2 -a 0 -i 0 -k RTR
r -t 1.014677778 -s 3 -d -1 -p AOMDV -e 52 -c 2 -a 0 -i 0 -k RTR
+ -t 1.015105723 -s 3 -d -1 -p AOMDV -e 52 -c 2 -a 0 -i 0 -k RTR 
- -t 1.015105723 -s 3 -d -1 -p AOMDV -e 52 -c 2 -a 0 -i 0 -k RTR
h -t 1.015105723 -s 3 -d -1 -p AOMDV -e 52 -c 2 -a 0 -i 0 -k RTR
+ -t 1.015340723 -s 3 -d -1 -p AOMDV -e 110 -c 2 -a 0 -i 0 -k MAC 
- -t 1.015340723 -s 3 -d -1 -p AOMDV -e 110 -c 2 -a 0 -i 0 -k MAC
h -t 1.015340723 -s 3 -d -1 -p AOMDV -e 110 -c 2 -a 0 -i 0 -k MAC
r -t 1.016221505 -s 2 -d -1 -p AOMDV -e 52 -c 2 -a 0 -i 0 -k MAC
r -t 1.016221515 -s 4 -d -1 -p AOMDV -e 52 -c 2 -a 0 -i 0 -k MAC
r -t 1.016246505 -s 2 -d -1 -p AOMDV -e 52 -c 2 -a 0 -i 0 -k RTR
r -t 1.016246515 -s 4 -d -1 -p AOMDV -e 52 -c 2 -a 0 -i 0 -k RTR
+ -t 1.016246515 -s 4 -d 3 -p AOMDV -e 52 -c 2 -a 0 -i 0 -k RTR 
- -t 1.016246515 -s 4 -d 3 -p AOMDV -e 52 -c 2 -a 0 -i 0 -k RTR
h -t 1.016246515 -s 4 -d 3 -p AOMDV -e 52 -c 2 -a 0 -i 0 -k RTR
+ -t 1.016541515 -s 4 -d -1 -p ARP -e 86 -c 2 -a 0 -i 0 -k MAC 
- -t 1.016541515 -s 4 -d -1 -p ARP -e 86 -c 2 -a 0 -i 0 -k MAC
h -t 1.016541515 -s 4 -d -1 -p ARP -e 86 -c 2 -a 0 -i 0 -k MAC
r -t 1.017230306 -s 3 -d -1 -p ARP -e 28 -c 2 -a 0 -i 0 -k MAC
+ -t 1.017380306 -s 3 -d -1 -p RTS -e 44 -c 2 -a 0 -i 0 -k MAC 
- -t 1.017380306 -s 3 -d -1 -p RTS -e 44 -c 2 -a 0 -i 0 -k MAC
h -t 1.017380306 -s 3 -d -1 -p RTS -e 44 -c 2 -a 0 -i 0 -k MAC
r -t 1.017733098 -s 4 -d -1 -p RTS -e 44 -c 2 -a 0 -i 0 -k MAC
+ -t 1.017743098 -s 4 -d -1 -p CTS -e 38 -c 2 -a 0 -i 0 -k MAC 
- -t 1.017743098 -s 4 -d -1 -p CTS -e 38 -c 2 -a 0 -i 0 -k MAC
h -t 1.017743098 -s 4 -d -1 -p CTS -e 38 -c 2 -a 0 -i 0 -k MAC
r -t 1.018047890 -s 3 -d -1 -p CTS -e 38 -c 2 -a 0 -i 0 -k MAC
+ -t 1.018057890 -s 3 -d -1 -p ARP -e 86 -c 2 -a 0 -i 0 -k MAC 
- -t 1.018057890 -s 3 -d -1 -p ARP -e 86 -c 2 -a 0 -i 0 -k MAC
h -t 1.018057890 -s 3 -d -1 -p ARP -e 86 -c 2 -a 0 -i 0 -k MAC
r -t 1.018746681 -s 4 -d -1 -p ARP -e 28 -c 2 -a 0 -i 0 -k MAC
+ -t 1.018756681 -s 4 -d -1 -p ACK -e 38 -c 2 -a 0 -i 0 -k MAC 
- -t 1.018756681 -s 4 -d -1 -p ACK -e 38 -c 2 -a 0 -i 0 -k MAC
h -t 1.018756681 -s 4 -d -1 -p ACK -e 38 -c 2 -a 0 -i 0 -k MAC
r -t 1.019061473 -s 3 -d -1 -p ACK -e 38 -c 2 -a 0 -i 0 -k MAC
+ -t 1.019170681 -s 4 -d -1 -p RTS -e 44 -c 2 -a 0 -i 0 -k MAC 
- -t 1.019170681 -s 4 -d -1 -p RTS -e 44 -c 2 -a 0 -i 0 -k MAC
h -t 1.019170681 -s 4 -d -1 -p RTS -e 44 -c 2 -a 0 -i 0 -k MAC
r -t 1.019523473 -s 3 -d -1 -p RTS -e 44 -c 2 -a 0 -i 0 -k MAC
+ -t 1.019533473 -s 3 -d -1 -p CTS -e 38 -c 2 -a 0 -i 0 -k MAC 
- -t 1.019533473 -s 3 -d -1 -p CTS -e 38 -c 2 -a 0 -i 0 -k MAC
h -t 1.019533473 -s 3 -d -1 -p CTS -e 38 -c 2 -a 0 -i 0 -k MAC
r -t 1.019838264 -s 4 -d -1 -p CTS -e 38 -c 2 -a 0 -i 0 -k MAC
+ -t 1.019848264 -s 4 -d 3 -p AOMDV -e 110 -c 2 -a 0 -i 0 -k MAC 
- -t 1.019848264 -s 4 -d 3 -p AOMDV -e 110 -c 2 -a 0 -i 0 -k MAC
h -t 1.019848264 -s 4 -d 3 -p AOMDV -e 110 -c 2 -a 0 -i 0 -k MAC
r -t 1.020729056 -s 3 -d 3 -p AOMDV -e 52 -c 2 -a 0 -i 0 -k MAC
+ -t 1.020739056 -s 3 -d -1 -p ACK -e 38 -c 2 -a 0 -i 0 -k MAC 
- -t 1.020739056 -s 3 -d -1 -p ACK -e 38 -c 2 -a 0 -i 0 -k MAC
h -t 1.020739056 -s 3 -d -1 -p ACK -e 38 -c 2 -a 0 -i 0 -k MAC
+ -t 1.020754056 -s 3 -d 2 -p AOMDV -e 52 -c 2 -a 0 -i 0 -k RTR 
- -t 1.020754056 -s 3 -d 2 -p AOMDV -e 52 -c 2 -a 0 -i 0 -k RTR
h -t 1.020754056 -s 3 -d 2 -p AOMDV -e 52 -c 2 -a 0 -i 0 -k RTR
r -t 1.021043847 -s 4 -d -1 -p ACK -e 38 -c 2 -a 0 -i 0 -k MAC
+ -t 1.021533056 -s 3 -d -1 -p ARP -e 86 -c 2 -a 0 -i 0 -k MAC 
- -t 1.021533056 -s 3 -d -1 -p ARP -e 86 -c 2 -a 0 -i 0 -k MAC
h -t 1.021533056 -s 3 -d -1 -p ARP -e 86 -c 2 -a 0 -i 0 -k MAC
r -t 1.022221837 -s 2 -d -1 -p ARP -e 28 -c 2 -a 0 -i 0 -k MAC
r -t 1.022221847 -s 4 -d -1 -p ARP -e 28 -c 2 -a 0 -i 0 -k MAC
+ -t 1.022476837 -s 2 -d -1 -p RTS -e 44 -c 2 -a 0 -i 0 -k MAC 
- -t 1.022476837 -s 2 -d -1 -p RTS -e 44 -c 2 -a 0 -i 0 -k MAC
h -t 1.022476837 -s 2 -d -1 -p RTS -e 44 -c 2 -a 0 -i 0 -k MAC
r -t 1.022829619 -s 3 -d -1 -p RTS -e 44 -c 2 -a 0 -i 0 -k MAC
+ -t 1.022839619 -s 3 -d -1 -p CTS -e 38 -c 2 -a 0 -i 0 -k MAC 
- -t 1.022839619 -s 3 -d -1 -p CTS -e 38 -c 2 -a 0 -i 0 -k MAC
h -t 1.022839619 -s 3 -d -1 -p CTS -e 38 -c 2 -a 0 -i 0 -k MAC
r -t 1.023144400 -s 2 -d -1 -p CTS -e 38 -c 2 -a 0 -i 0 -k MAC
+ -t 1.023154400 -s 2 -d -1 -p ARP -e 86 -c 2 -a 0 -i 0 -k MAC 
- -t 1.023154400 -s 2 -d -1 -p ARP -e 86 -c 2 -a 0 -i 0 -k MAC
h -t 1.023154400 -s 2 -d -1 -p ARP -e 86 -c 2 -a 0 -i 0 -k MAC
r -t 1.023843182 -s 3 -d -1 -p ARP -e 28 -c 2 -a 0 -i 0 -k MAC
+ -t 1.023853182 -s 3 -d -1 -p ACK -e 38 -c 2 -a 0 -i 0 -k MAC 
- -t 1.023853182 -s 3 -d -1 -p ACK -e 38 -c 2 -a 0 -i 0 -k MAC
h -t 1.023853182 -s 3 -d -1 -p ACK -e 38 -c 2 -a 0 -i 0 -k MAC
r -t 1.024157963 -s 2 -d -1 -p ACK -e 38 -c 2 -a 0 -i 0 -k MAC
+ -t 1.024327182 -s 3 -d -1 -p RTS -e 44 -c 2 -a 0 -i 0 -k MAC 
- -t 1.024327182 -s 3 -d -1 -p RTS -e 44 -c 2 -a 0 -i 0 -k MAC
h -t 1.024327182 -s 3 -d -1 -p RTS -e 44 -c 2 -a 0 -i 0 -k MAC
r -t 1.024679963 -s 2 -d -1 -p RTS -e 44 -c 2 -a 0 -i 0 -k MAC
+ -t 1.024689963 -s 2 -d -1 -p CTS -e 38 -c 2 -a 0 -i 0 -k MAC 
- -t 1.024689963 -s 2 -d -1 -p CTS -e 38 -c 2 -a 0 -i 0 -k MAC
h -t 1.024689963 -s 2 -d -1 -p CTS -e 38 -c 2 -a 0 -i 0 -k MAC
r -t 1.024994745 -s 3 -d -1 -p CTS -e 38 -c 2 -a 0 -i 0 -k MAC
+ -t 1.025004745 -s 3 -d 2 -p AOMDV -e 110 -c 2 -a 0 -i 0 -k MAC 
- -t 1.025004745 -s 3 -d 2 -p AOMDV -e 110 -c 2 -a 0 -i 0 -k MAC
h -t 1.025004745 -s 3 -d 2 -p AOMDV -e 110 -c 2 -a 0 -i 0 -k MAC
r -t 1.025885526 -s 2 -d 2 -p AOMDV -e 52 -c 2 -a 0 -i 0 -k MAC
+ -t 1.025895526 -s 2 -d -1 -p ACK -e 38 -c 2 -a 0 -i 0 -k MAC 
- -t 1.025895526 -s 2 -d -1 -p ACK -e 38 -c 2 -a 0 -i 0 -k MAC
h -t 1.025895526 -s 2 -d -1 -p ACK -e 38 -c 2 -a 0 -i 0 -k MAC
+ -t 1.025910526 -s 2 -d 1 -p AOMDV -e 52 -c 2 -a 0 -i 0 -k RTR 
- -t 1.025910526 -s 2 -d 1 -p AOMDV -e 52 -c 2 -a 0 -i 0 -k RTR
h -t 1.025910526 -s 2 -d 1 -p AOMDV -e 52 -c 2 -a 0 -i 0 -k RTR
r -t 1.026200308 -s 3 -d -1 -p ACK -e 38 -c 2 -a 0 -i 0 -k MAC
+ -t 1.026369526 -s 2 -d -1 -p ARP -e 86 -c 2 -a 0 -i 0 -k MAC 
- -t 1.026369526 -s 2 -d -1 -p ARP -e 86 -c 2 -a 0 -i 0 -k MAC
h -t 1.026369526 -s 2 -d -1 -p ARP -e 86 -c 2 -a 0 -i 0 -k MAC
r -t 1.027058258 -s 1 -d -1 -p ARP -e 28 -c 2 -a 0 -i 0 -k MAC
r -t 1.027058308 -s 3 -d -1 -p ARP -e 28 -c 2 -a 0 -i 0 -k MAC
+ -t 1.027553258 -s 1 -d -1 -p RTS -e 44 -c 2 -a 0 -i 0 -k MAC 
- -t 1.027553258 -s 1 -d -1 -p RTS -e 44 -c 2 -a 0 -i 0 -k MAC
h -t 1.027553258 -s 1 -d -1 -p RTS -e 44 -c 2 -a 0 -i 0 -k MAC
r -t 1.027905990 -s 2 -d -1 -p RTS -e 44 -c 2 -a 0 -i 0 -k MAC
+ -t 1.027915990 -s 2 -d -1 -p CTS -e 38 -c 2 -a 0 -i 0 -k MAC 
- -t 1.027915990 -s 2 -d -1 -p CTS -e 38 -c 2 -a 0 -i 0 -k MAC
h -t 1.027915990 -s 2 -d -1 -p CTS -e 38 -c 2 -a 0 -i 0 -k MAC
r -t 1.028220721 -s 1 -d -1 -p CTS -e 38 -c 2 -a 0 -i 0 -k MAC
+ -t 1.028230721 -s 1 -d -1 -p ARP -e 86 -c 2 -a 0 -i 0 -k MAC 
- -t 1.028230721 -s 1 -d -1 -p ARP -e 86 -c 2 -a 0 -i 0 -k MAC
h -t 1.028230721 -s 1 -d -1 -p ARP -e 86 -c 2 -a 0 -i 0 -k MAC
r -t 1.028919453 -s 2 -d -1 -p ARP -e 28 -c 2 -a 0 -i 0 -k MAC
+ -t 1.028929453 -s 2 -d -1 -p ACK -e 38 -c 2 -a 0 -i 0 -k MAC 
- -t 1.028929453 -s 2 -d -1 -p ACK -e 38 -c 2 -a 0 -i 0 -k MAC
h -t 1.028929453 -s 2 -d -1 -p ACK -e 38 -c 2 -a 0 -i 0 -k MAC
r -t 1.029234185 -s 1 -d -1 -p ACK -e 38 -c 2 -a 0 -i 0 -k MAC
+ -t 1.029463453 -s 2 -d -1 -p RTS -e 44 -c 2 -a 0 -i 0 -k MAC 
- -t 1.029463453 -s 2 -d -1 -p RTS -e 44 -c 2 -a 0 -i 0 -k MAC
h -t 1.029463453 -s 2 -d -1 -p RTS -e 44 -c 2 -a 0 -i 0 -k MAC
r -t 1.029816185 -s 1 -d -1 -p RTS -e 44 -c 2 -a 0 -i 0 -k MAC
+ -t 1.029826185 -s 1 -d -1 -p CTS -e 38 -c 2 -a 0 -i 0 -k MAC 
- -t 1.029826185 -s 1 -d -1 -p CTS -e 38 -c 2 -a 0 -i 0 -k MAC
h -t 1.029826185 -s 1 -d -1 -p CTS -e 38 -c 2 -a 0 -i 0 -k MAC
r -t 1.030130917 -s 2 -d -1 -p CTS -e 38 -c 2 -a 0 -i 0 -k MAC
+ -t 1.030140917 -s 2 -d 1 -p AOMDV -e 110 -c 2 -a 0 -i 0 -k MAC 
- -t 1.030140917 -s 2 -d 1 -p AOMDV -e 110 -c 2 -a 0 -i 0 -k MAC
h -t 1.030140917 -s 2 -d 1 -p AOMDV -e 110 -c 2 -a 0 -i 0 -k MAC
r -t 1.031021648 -s 1 -d 1 -p AOMDV -e 52 -c 2 -a 0 -i 0 -k MAC
+ -t 1.031031648 -s 1 -d -1 -p ACK -e 38 -c 2 -a 0 -i 0 -k MAC 
- -t 1.031031648 -s 1 -d -1 -p ACK -e 38 -c 2 -a 0 -i 0 -k MAC
h -t 1.031031648 -s 1 -d -1 -p ACK -e 38 -c 2 -a 0 -i 0 -k MAC
+ -t 1.031046648 -s 1 -d 0 -p AOMDV -e 52 -c 2 -a 0 -i 0 -k RTR 
- -t 1.031046648 -s 1 -d 0 -p AOMDV -e 52 -c 2 -a 0 -i 0 -k RTR
h -t 1.031046648 -s 1 -d 0 -p AOMDV -e 52 -c 2 -a 0 -i 0 -k RTR
r -t 1.031336380 -s 2 -d -1 -p ACK -e 38 -c 2 -a 0 -i 0 -k MAC
+ -t 1.031805648 -s 1 -d -1 -p ARP -e 86 -c 2 -a 0 -i 0 -k MAC 
- -t 1.031805648 -s 1 -d -1 -p ARP -e 86 -c 2 -a 0 -i 0 -k MAC
h -t 1.031805648 -s 1 -d -1 -p ARP -e 86 -c 2 -a 0 -i 0 -k MAC
r -t 1.032494362 -s 0 -d -1 -p ARP -e 28 -c 2 -a 0 -i 0 -k MAC
r -t 1.032494380 -s 2 -d -1 -p ARP -e 28 -c 2 -a 0 -i 0 -k MAC
+ -t 1.032909362 -s 0 -d -1 -p RTS -e 44 -c 2 -a 0 -i 0 -k MAC 
- -t 1.032909362 -s 0 -d -1 -p RTS -e 44 -c 2 -a 0 -i 0 -k MAC
h -t 1.032909362 -s 0 -d -1 -p RTS -e 44 -c 2 -a 0 -i 0 -k MAC
r -t 1.033262075 -s 1 -d -1 -p RTS -e 44 -c 2 -a 0 -i 0 -k MAC
+ -t 1.033272075 -s 1 -d -1 -p CTS -e 38 -c 2 -a 0 -i 0 -k MAC 
- -t 1.033272075 -s 1 -d -1 -p CTS -e 38 -c 2 -a 0 -i 0 -k MAC
h -t 1.033272075 -s 1 -d -1 -p CTS -e 38 -c 2 -a 0 -i 0 -k MAC
r -t 1.033576788 -s 0 -d -1 -p CTS -e 38 -c 2 -a 0 -i 0 -k MAC
+ -t 1.033586788 -s 0 -d -1 -p ARP -e 86 -c 2 -a 0 -i 0 -k MAC 
- -t 1.033586788 -s 0 -d -1 -p ARP -e 86 -c 2 -a 0 -i 0 -k MAC
h -t 1.033586788 -s 0 -d -1 -p ARP -e 86 -c 2 -a 0 -i 0 -k MAC
r -t 1.034275502 -s 1 -d -1 -p ARP -e 28 -c 2 -a 0 -i 0 -k MAC
+ -t 1.034285502 -s 1 -d -1 -p ACK -e 38 -c 2 -a 0 -i 0 -k MAC 
- -t 1.034285502 -s 1 -d -1 -p ACK -e 38 -c 2 -a 0 -i 0 -k MAC
h -t 1.034285502 -s 1 -d -1 -p ACK -e 38 -c 2 -a 0 -i 0 -k MAC
r -t 1.034590215 -s 0 -d -1 -p ACK -e 38 -c 2 -a 0 -i 0 -k MAC
+ -t 1.034819502 -s 1 -d -1 -p RTS -e 44 -c 2 -a 0 -i 0 -k MAC 
- -t 1.034819502 -s 1 -d -1 -p RTS -e 44 -c 2 -a 0 -i 0 -k MAC
h -t 1.034819502 -s 1 -d -1 -p RTS -e 44 -c 2 -a 0 -i 0 -k MAC
r -t 1.035172215 -s 0 -d -1 -p RTS -e 44 -c 2 -a 0 -i 0 -k MAC
+ -t 1.035182215 -s 0 -d -1 -p CTS -e 38 -c 2 -a 0 -i 0 -k MAC 
- -t 1.035182215 -s 0 -d -1 -p CTS -e 38 -c 2 -a 0 -i 0 -k MAC
h -t 1.035182215 -s 0 -d -1 -p CTS -e 38 -c 2 -a 0 -i 0 -k MAC
r -t 1.035486928 -s 1 -d -1 -p CTS -e 38 -c 2 -a 0 -i 0 -k MAC
+ -t 1.035496928 -s 1 -d 0 -p AOMDV -e 110 -c 2 -a 0 -i 0 -k MAC 
- -t 1.035496928 -s 1 -d 0 -p AOMDV -e 110 -c 2 -a 0 -i 0 -k MAC
h -t 1.035496928 -s 1 -d 0 -p AOMDV -e 110 -c 2 -a 0 -i 0 -k MAC
r -t 1.036377642 -s 0 -d 0 -p AOMDV -e 52 -c 2 -a 0 -i 0 -k MAC
+ -t 1.036387642 -s 0 -d -1 -p ACK -e 38 -c 2 -a 0 -i 0 -k MAC 
- -t 1.036387642 -s 0 -d -1 -p ACK -e 38 -c 2 -a 0 -i 0 -k MAC
h -t 1.036387642 -s 0 -d -1 -p ACK -e 38 -c 2 -a 0 -i 0 -k MAC
+ -t 1.036402642 -s 0 -d 1 -p cbr -e 21 -c 2 -a 0 -i 0 -k RTR 
- -t 1.036402642 -s 0 -d 1 -p cbr -e 21 -c 2 -a 0 -i 0 -k RTR
h -t 1.036402642 -s 0 -d 1 -p cbr -e 21 -c 2 -a 0 -i 0 -k RTR
r -t 1.036692355 -s 1 -d -1 -p ACK -e 38 -c 2 -a 0 -i 0 -k MAC
+ -t 1.037041642 -s 0 -d -1 -p RTS -e 44 -c 2 -a 0 -i 0 -k MAC 
- -t 1.037041642 -s 0 -d -1 -p RTS -e 44 -c 2 -a 0 -i 0 -k MAC
h -t 1.037041642 -s 0 -d -1 -p RTS -e 44 -c 2 -a 0 -i 0 -k MAC
r -t 1.037394355 -s 1 -d -1 -p RTS -e 44 -c 2 -a 0 -i 0 -k MAC
+ -t 1.037404355 -s 1 -d -1 -p CTS -e 38 -c 2 -a 0 -i 0 -k MAC 
- -t 1.037404355 -s 1 -d -1 -p CTS -e 38 -c 2 -a 0 -i 0 -k MAC
h -t 1.037404355 -s 1 -d -1 -p CTS -e 38 -c 2 -a 0 -i 0 -k MAC
r -t 1.037709069 -s 0 -d -1 -p CTS -e 38 -c 2 -a 0 -i 0 -k MAC
+ -t 1.037719069 -s 0 -d 1 -p cbr -e 79 -c 2 -a 0 -i 0 -k MAC 
- -t 1.037719069 -s 0 -d 1 -p cbr -e 79 -c 2 -a 0 -i 0 -k MAC
h -t 1.037719069 -s 0 -d 1 -p cbr -e 79 -c 2 -a 0 -i 0 -k MAC
r -t 1.038351782 -s 1 -d 1 -p cbr -e 21 -c 2 -a 0 -i 0 -k MAC
+ -t 1.038361782 -s 1 -d -1 -p ACK -e 38 -c 2 -a 0 -i 0 -k MAC 
- -t 1.038361782 -s 1 -d -1 -p ACK -e 38 -c 2 -a 0 -i 0 -k MAC
h -t 1.038361782 -s 1 -d -1 -p ACK -e 38 -c 2 -a 0 -i 0 -k MAC
+ -t 1.038376782 -s 1 -d 2 -p cbr -e 21 -c 2 -a 0 -i 0 -k RTR 
- -t 1.038376782 -s 1 -d 2 -p cbr -e 21 -c 2 -a 0 -i 0 -k RTR
h -t 1.038376782 -s 1 -d 2 -p cbr -e 21 -c 2 -a 0 -i 0 -k RTR
r -t 1.038666495 -s 0 -d -1 -p ACK -e 38 -c 2 -a 0 -i 0 -k MAC
+ -t 1.038795782 -s 1 -d -1 -p RTS -e 44 -c 2 -a 0 -i 0 -k MAC 
- -t 1.038795782 -s 1 -d -1 -p RTS -e 44 -c 2 -a 0 -i 0 -k MAC
h -t 1.038795782 -s 1 -d -1 -p RTS -e 44 -c 2 -a 0 -i 0 -k MAC
r -t 1.039148514 -s 2 -d -1 -p RTS -e 44 -c 2 -a 0 -i 0 -k MAC
+ -t 1.039158514 -s 2 -d -1 -p CTS -e 38 -c 2 -a 0 -i 0 -k MAC 
- -t 1.039158514 -s 2 -d -1 -p CTS -e 38 -c 2 -a 0 -i 0 -k MAC
h -t 1.039158514 -s 2 -d -1 -p CTS -e 38 -c 2 -a 0 -i 0 -k MAC
r -t 1.039463245 -s 1 -d -1 -p CTS -e 38 -c 2 -a 0 -i 0 -k MAC
+ -t 1.039473245 -s 1 -d 2 -p cbr -e 79 -c 2 -a 0 -i 0 -k MAC 
- -t 1.039473245 -s 1 -d 2 -p cbr -e 79 -c 2 -a 0 -i 0 -k MAC
h -t 1.039473245 -s 1 -d 2 -p cbr -e 79 -c 2 -a 0 -i 0 -k MAC
r -t 1.040105977 -s 2 -d 2 -p cbr -e 21 -c 2 -a 0 -i 0 -k MAC
+ -t 1.040115977 -s 2 -d -1 -p ACK -e 38 -c 2 -a 0 -i 0 -k MAC 
- -t 1.040115977 -s 2 -d -1 -p ACK -e 38 -c 2 -a 0 -i 0 -k MAC
h -t 1.040115977 -s 2 -d -1 -p ACK -e 38 -c 2 -a 0 -i 0 -k MAC
+ -t 1.040130977 -s 2 -d 3 -p cbr -e 21 -c 2 -a 0 -i 0 -k RTR 
- -t 1.040130977 -s 2 -d 3 -p cbr -e 21 -c 2 -a 0 -i 0 -k RTR
h -t 1.040130977 -s 2 -d 3 -p cbr -e 21 -c 2 -a 0 -i 0 -k RTR
r -t 1.040420709 -s 1 -d -1 -p ACK -e 38 -c 2 -a 0 -i 0 -k MAC
+ -t 1.040549977 -s 2 -d -1 -p RTS -e 44 -c 2 -a 0 -i 0 -k MAC 
- -t 1.040549977 -s 2 -d -1 -p RTS -e 44 -c 2 -a 0 -i 0 -k MAC
h -t 1.040549977 -s 2 -d -1 -p RTS -e 44 -c 2 -a 0 -i 0 -k MAC
r -t 1.040902759 -s 3 -d -1 -p RTS -e 44 -c 2 -a 0 -i 0 -k MAC
+ -t 1.040912759 -s 3 -d -1 -p CTS -e 38 -c 2 -a 0 -i 0 -k MAC 
- -t 1.040912759 -s 3 -d -1 -p CTS -e 38 -c 2 -a 0 -i 0 -k MAC
h -t 1.040912759 -s 3 -d -1 -p CTS -e 38 -c 2 -a 0 -i 0 -k MAC
r -t 1.041217540 -s 2 -d -1 -p CTS -e 38 -c 2 -a 0 -i 0 -k MAC
+ -t 1.041227540 -s 2 -d 3 -p cbr -e 79 -c 2 -a 0 -i 0 -k MAC 
- -t 1.041227540 -s 2 -d 3 -p cbr -e 79 -c 2 -a 0 -i 0 -k MAC
h -t 1.041227540 -s 2 -d 3 -p cbr -e 79 -c 2 -a 0 -i 0 -k MAC
r -t 1.041860321 -s 3 -d 3 -p cbr -e 21 -c 2 -a 0 -i 0 -k MAC
+ -t 1.041870321 -s 3 -d -1 -p ACK -e 38 -c 2 -a 0 -i 0 -k MAC 
- -t 1.041870321 -s 3 -d -1 -p ACK -e 38 -c 2 -a 0 -i 0 -k MAC
h -t 1.041870321 -s 3 -d -1 -p ACK -e 38 -c 2 -a 0 -i 0 -k MAC
+ -t 1.041885321 -s 3 -d 4 -p cbr -e 21 -c 2 -a 0 -i 0 -k RTR 
- -t 1.041885321 -s 3 -d 4 -p cbr -e 21 -c 2 -a 0 -i 0 -k RTR
h -t 1.041885321 -s 3 -d 4 -p cbr -e 21 -c 2 -a 0 -i 0 -k RTR
r -t 1.042175103 -s 2 -d -1 -p ACK -e 38 -c 2 -a 0 -i 0 -k MAC
+ -t 1.042424321 -s 3 -d -1 -p RTS -e 44 -c 2 -a 0 -i 0 -k MAC 
- -t 1.042424321 -s 3 -d -1 -p RTS -e 44 -c 2 -a 0 -i 0 -k MAC
h -t 1.042424321 -s 3 -d -1 -p RTS -e 44 -c 2 -a 0 -i 0 -k MAC
r -t 1.042777113 -s 4 -d -1 -p RTS -e 44 -c 2 -a 0 -i 0 -k MAC
+ -t 1.042787113 -s 4 -d -1 -p CTS -e 38 -c 2 -a 0 -i 0 -k MAC 
- -t 1.042787113 -s 4 -d -1 -p CTS -e 38 -c 2 -a 0 -i 0 -k MAC
h -t 1.042787113 -s 4 -d -1 -p CTS -e 38 -c 2 -a 0 -i 0 -k MAC
r -t 1.043091905 -s 3 -d -1 -p CTS -e 38 -c 2 -a 0 -i 0 -k MAC
+ -t 1.043101905 -s 3 -d 4 -p cbr -e 79 -c 2 -a 0 -i 0 -k MAC 
- -t 1.043101905 -s 3 -d 4 -p cbr -e 79 -c 2 -a 0 -i 0 -k MAC
h -t 1.043101905 -s 3 -d 4 -p cbr -e 79 -c 2 -a 0 -i 0 -k MAC
r -t 1.043734696 -s 4 -d 4 -p cbr -e 21 -c 2 -a 0 -i 0 -k MAC
+ -t 1.043744696 -s 4 -d -1 -p ACK -e 38 -c 2 -a 0 -i 0 -k MAC 
- -t 1.043744696 -s 4 -d -1 -p ACK -e 38 -c 2 -a 0 -i 0 -k MAC
h -t 1.043744696 -s 4 -d -1 -p ACK -e 38 -c 2 -a 0 -i 0 -k MAC
r -t 1.043759696 -s 4 -d 4 -p cbr -e 21 -c 2 -a 0 -i 0 -k AGT
r -t 1.044049488 -s 3 -d -1 -p ACK -e 38 -c 2 -a 0 -i 0 -k MAC
+ -t 2.000033958 -s 0 -d -1 -p AOMDV -e 44 -c 2 -a 0 -i 0 -k RTR 
- -t 2.000033958 -s 0 -d -1 -p AOMDV -e 44 -c 2 -a 0 -i 0 -k RTR
h -t 2.000033958 -s 0 -d -1 -p AOMDV -e 44 -c 2 -a 0 -i 0 -k RTR
+ -t 2.000308958 -s 0 -d -1 -p AOMDV -e 102 -c 2 -a 0 -i 0 -k MAC 
- -t 2.000308958 -s 0 -d -1 -p AOMDV -e 102 -c 2 -a 0 -i 0 -k MAC
h -t 2.000308958 -s 0 -d -1 -p AOMDV -e 102 -c 2 -a 0 -i 0 -k MAC
r -t 2.001125671 -s 1 -d -1 -p AOMDV -e 44 -c 2 -a 0 -i 0 -k MAC
r -t 2.001150671 -s 1 -d -1 -p AOMDV -e 44 -c 2 -a 0 -i 0 -k RTR
+ -t 2.001420466 -s 2 -d -1 -p AOMDV -e 44 -c 2 -a 0 -i 0 -k RTR 
- -t 2.001420466 -s 2 -d -1 -p AOMDV -e 44 -c 2 -a 0 -i 0 -k RTR
h -t 2.001420466 -s 2 -d -1 -p AOMDV -e 44 -c 2 -a 0 -i 0 -k RTR
+ -t 2.001660402 -s 2 -d -1 -p AOMDV -e 102 -c 2 -a 0 -i 0 -k MAC 
- -t 2.001660402 -s 2 -d -1 -p AOMDV -e 102 -c 2 -a 0 -i 0 -k MAC
h -t 2.001660402 -s 2 -d -1 -p AOMDV -e 102 -c 2 -a 0 -i 0 -k MAC
r -t 2.002477134 -s 1 -d -1 -p AOMDV -e 44 -c 2 -a 0 -i 0 -k MAC
r -t 2.002477184 -s 3 -d -1 -p AOMDV -e 44 -c 2 -a 0 -i 0 -k MAC
r -t 2.002502134 -s 1 -d -1 -p AOMDV -e 44 -c 2 -a 0 -i 0 -k RTR
r -t 2.002502184 -s 3 -d -1 -p AOMDV -e 44 -c 2 -a 0 -i 0 -k RTR
+ -t 2.008812267 -s 3 -d -1 -p AOMDV -e 44 -c 2 -a 0 -i 0 -k RTR 
- -t 2.008812267 -s 3 -d -1 -p AOMDV -e 44 -c 2 -a 0 -i 0 -k RTR
h -t 2.008812267 -s 3 -d -1 -p AOMDV -e 44 -c 2 -a 0 -i 0 -k RTR
+ -t 2.009167267 -s 3 -d -1 -p AOMDV -e 102 -c 2 -a 0 -i 0 -k MAC 
- -t 2.009167267 -s 3 -d -1 -p AOMDV -e 102 -c 2 -a 0 -i 0 -k MAC
h -t 2.009167267 -s 3 -d -1 -p AOMDV -e 102 -c 2 -a 0 -i 0 -k MAC
r -t 2.009984049 -s 2 -d -1 -p AOMDV -e 44 -c 2 -a 0 -i 0 -k MAC
r -t 2.009984059 -s 4 -d -1 -p AOMDV -e 44 -c 2 -a 0 -i 0 -k MAC
r -t 2.010009049 -s 2 -d -1 -p AOMDV -e 44 -c 2 -a 0 -i 0 -k RTR
r -t 2.010009059 -s 4 -d -1 -p AOMDV -e 44 -c 2 -a 0 -i 0 -k RTR
+ -t 2.044117338 -s 4 -d -1 -p AOMDV -e 44 -c 2 -a 0 -i 0 -k RTR 
- -t 2.044117338 -s 4 -d -1 -p AOMDV -e 44 -c 2 -a 0 -i 0 -k RTR
h -t 2.044117338 -s 4 -d -1 -p AOMDV -e 44 -c 2 -a 0 -i 0 -k RTR
+ -t 2.044672338 -s 4 -d -1 -p AOMDV -e 102 -c 2 -a 0 -i 0 -k MAC 
- -t 2.044672338 -s 4 -d -1 -p AOMDV -e 102 -c 2 -a 0 -i 0 -k MAC
h -t 2.044672338 -s 4 -d -1 -p AOMDV -e 102 -c 2 -a 0 -i 0 -k MAC
r -t 2.045489130 -s 3 -d -1 -p AOMDV -e 44 -c 2 -a 0 -i 0 -k MAC
r -t 2.045514130 -s 3 -d -1 -p AOMDV -e 44 -c 2 -a 0 -i 0 -k RTR
+ -t 2.055588072 -s 1 -d -1 -p AOMDV -e 44 -c 2 -a 0 -i 0 -k RTR 
- -t 2.055588072 -s 1 -d -1 -p AOMDV -e 44 -c 2 -a 0 -i 0 -k RTR
h -t 2.055588072 -s 1 -d -1 -p AOMDV -e 44 -c 2 -a 0 -i 0 -k RTR
+ -t 2.055983072 -s 1 -d -1 -p AOMDV -e 102 -c 2 -a 0 -i 0 -k MAC 
- -t 2.055983072 -s 1 -d -1 -p AOMDV -e 102 -c 2 -a 0 -i 0 -k MAC
h -t 2.055983072 -s 1 -d -1 -p AOMDV -e 102 -c 2 -a 0 -i 0 -k MAC
r -t 2.056799785 -s 0 -d -1 -p AOMDV -e 44 -c 2 -a 0 -i 0 -k MAC
r -t 2.056799803 -s 2 -d -1 -p AOMDV -e 44 -c 2 -a 0 -i 0 -k MAC
r -t 2.056824785 -s 0 -d -1 -p AOMDV -e 44 -c 2 -a 0 -i 0 -k RTR
r -t 2.056824803 -s 2 -d -1 -p AOMDV -e 44 -c 2 -a 0 -i 0 -k RTR
+ -t 3.002755747 -s 1 -d -1 -p AOMDV -e 656 -c 2 -a 0 -i 0 -k RTR 
- -t 3.002755747 -s 1 -d -1 -p AOMDV -e 656 -c 2 -a 0 -i 0 -k RTR
h -t 3.002755747 -s 1 -d -1 -p AOMDV -e 656 -c 2 -a 0 -i 0 -k RTR
+ -t 3.003130747 -s 1 -d -1 -p AOMDV -e 714 -c 2 -a 0 -i 0 -k MAC 
- -t 3.003130747 -s 1 -d -1 -p AOMDV -e 714 -c 2 -a 0 -i 0 -k MAC
h -t 3.003130747 -s 1 -d -1 -p AOMDV -e 714 -c 2 -a 0 -i 0 -k MAC
r -t 3.008843461 -s 0 -d -1 -p AOMDV -e 656 -c 2 -a 0 -i 0 -k MAC
r -t 3.008843479 -s 2 -d -1 -p AOMDV -e 656 -c 2 -a 0 -i 0 -k MAC
r -t 3.008868461 -s 0 -d -1 -p AOMDV -e 656 -c 2 -a 0 -i 0 -k RTR
r -t 3.008868479 -s 2 -d -1 -p AOMDV -e 656 -c 2 -a 0 -i 0 -k RTR
+ -t 3.018621425 -s 3 -d -1 -p AOMDV -e 656 -c 2 -a 0 -i 0 -k RTR 
- -t 3.018621425 -s 3 -d -1 -p AOMDV -e 656 -c 2 -a 0 -i 0 -k RTR
h -t 3.018621425 -s 3 -d -1 -p AOMDV -e 656 -c 2 -a 0 -i 0 -k RTR
+ -t 3.018716425 -s 3 -d -1 -p AOMDV -e 714 -c 2 -a 0 -i 0 -k MAC 
- -t 3.018716425 -s 3 -d -1 -p AOMDV -e 714 -c 2 -a 0 -i 0 -k MAC
h -t 3.018716425 -s 3 -d -1 -p AOMDV -e 714 -c 2 -a 0 -i 0 -k MAC
r -t 3.024429207 -s 2 -d -1 -p AOMDV -e 656 -c 2 -a 0 -i 0 -k MAC
r -t 3.024429217 -s 4 -d -1 -p AOMDV -e 656 -c 2 -a 0 -i 0 -k MAC
r -t 3.024454207 -s 2 -d -1 -p AOMDV -e 656 -c 2 -a 0 -i 0 -k RTR
r -t 3.024454217 -s 4 -d -1 -p AOMDV -e 656 -c 2 -a 0 -i 0 -k RTR
+ -t 3.032731700 -s 2 -d -1 -p AOMDV -e 656 -c 2 -a 0 -i 0 -k RTR 
- -t 3.032731700 -s 2 -d -1 -p AOMDV -e 656 -c 2 -a 0 -i 0 -k RTR
h -t 3.032731700 -s 2 -d -1 -p AOMDV -e 656 -c 2 -a 0 -i 0 -k RTR
+ -t 3.033046700 -s 2 -d -1 -p AOMDV -e 714 -c 2 -a 0 -i 0 -k MAC 
- -t 3.033046700 -s 2 -d -1 -p AOMDV -e 714 -c 2 -a 0 -i 0 -k MAC
h -t 3.033046700 -s 2 -d -1 -p AOMDV -e 714 -c 2 -a 0 -i 0 -k MAC
r -t 3.038759432 -s 1 -d -1 -p AOMDV -e 656 -c 2 -a 0 -i 0 -k MAC
r -t 3.038759481 -s 3 -d -1 -p AOMDV -e 656 -c 2 -a 0 -i 0 -k MAC
r -t 3.038784432 -s 1 -d -1 -p AOMDV -e 656 -c 2 -a 0 -i 0 -k RTR
r -t 3.038784481 -s 3 -d -1 -p AOMDV -e 656 -c 2 -a 0 -i 0 -k RTR
+ -t 3.042568728 -s 0 -d -1 -p AOMDV -e 656 -c 2 -a 0 -i 0 -k RTR 
- -t 3.042568728 -s 0 -d -1 -p AOMDV -e 656 -c 2 -a 0 -i 0 -k RTR
h -t 3.042568728 -s 0 -d -1 -p AOMDV -e 656 -c 2 -a 0 -i 0 -k RTR
+ -t 3.042943728 -s 0 -d -1 -p AOMDV -e 714 -c 2 -a 0 -i 0 -k MAC 
- -t 3.042943728 -s 0 -d -1 -p AOMDV -e 714 -c 2 -a 0 -i 0 -k MAC
h -t 3.042943728 -s 0 -d -1 -p AOMDV -e 714 -c 2 -a 0 -i 0 -k MAC
r -t 3.048656441 -s 1 -d -1 -p AOMDV -e 656 -c 2 -a 0 -i 0 -k MAC
r -t 3.048681441 -s 1 -d -1 -p AOMDV -e 656 -c 2 -a 0 -i 0 -k RTR
+ -t 3.078498710 -s 4 -d -1 -p AOMDV -e 656 -c 2 -a 0 -i 0 -k RTR 
- -t 3.078498710 -s 4 -d -1 -p AOMDV -e 656 -c 2 -a 0 -i 0 -k RTR
h -t 3.078498710 -s 4 -d -1 -p AOMDV -e 656 -c 2 -a 0 -i 0 -k RTR
+ -t 3.079033710 -s 4 -d -1 -p AOMDV -e 714 -c 2 -a 0 -i 0 -k MAC 
- -t 3.079033710 -s 4 -d -1 -p AOMDV -e 714 -c 2 -a 0 -i 0 -k MAC
h -t 3.079033710 -s 4 -d -1 -p AOMDV -e 714 -c 2 -a 0 -i 0 -k MAC
r -t 3.084746502 -s 3 -d -1 -p AOMDV -e 656 -c 2 -a 0 -i 0 -k MAC
r -t 3.084771502 -s 3 -d -1 -p AOMDV -e 656 -c 2 -a 0 -i 0 -k RTR
+ -t 4.007260729 -s 2 -d -1 -p AOMDV -e 44 -c 2 -a 0 -i 0 -k RTR 
- -t 4.007260729 -s 2 -d -1 -p AOMDV -e 44 -c 2 -a 0 -i 0 -k RTR
h -t 4.007260729 -s 2 -d -1 -p AOMDV -e 44 -c 2 -a 0 -i 0 -k RTR
+ -t 4.007435729 -s 2 -d -1 -p AOMDV -e 102 -c 2 -a 0 -i 0 -k MAC 
- -t 4.007435729 -s 2 -d -1 -p AOMDV -e 102 -c 2 -a 0 -i 0 -k MAC
h -t 4.007435729 -s 2 -d -1 -p AOMDV -e 102 -c 2 -a 0 -i 0 -k MAC
r -t 4.008252461 -s 1 -d -1 -p AOMDV -e 44 -c 2 -a 0 -i 0 -k MAC
r -t 4.008252510 -s 3 -d -1 -p AOMDV -e 44 -c 2 -a 0 -i 0 -k MAC
r -t 4.008277461 -s 1 -d -1 -p AOMDV -e 44 -c 2 -a 0 -i 0 -k RTR
r -t 4.008277510 -s 3 -d -1 -p AOMDV -e 44 -c 2 -a 0 -i 0 -k RTR
+ -t 4.042378543 -s 3 -d -1 -p AOMDV -e 44 -c 2 -a 0 -i 0 -k RTR 
- -t 4.042378543 -s 3 -d -1 -p AOMDV -e 44 -c 2 -a 0 -i 0 -k RTR
h -t 4.042378543 -s 3 -d -1 -p AOMDV -e 44 -c 2 -a 0 -i 0 -k RTR
+ -t 4.042653543 -s 3 -d -1 -p AOMDV -e 102 -c 2 -a 0 -i 0 -k MAC 
- -t 4.042653543 -s 3 -d -1 -p AOMDV -e 102 -c 2 -a 0 -i 0 -k MAC
h -t 4.042653543 -s 3 -d -1 -p AOMDV -e 102 -c 2 -a 0 -i 0 -k MAC
r -t 4.043470324 -s 2 -d -1 -p AOMDV -e 44 -c 2 -a 0 -i 0 -k MAC
r -t 4.043470335 -s 4 -d -1 -p AOMDV -e 44 -c 2 -a 0 -i 0 -k MAC
r -t 4.043495324 -s 2 -d -1 -p AOMDV -e 44 -c 2 -a 0 -i 0 -k RTR
r -t 4.043495335 -s 4 -d -1 -p AOMDV -e 44 -c 2 -a 0 -i 0 -k RTR
+ -t 4.069816712 -s 4 -d -1 -p AOMDV -e 44 -c 2 -a 0 -i 0 -k RTR 
- -t 4.069816712 -s 4 -d -1 -p AOMDV -e 44 -c 2 -a 0 -i 0 -k RTR
h -t 4.069816712 -s 4 -d -1 -p AOMDV -e 44 -c 2 -a 0 -i 0 -k RTR
+ -t 4.070491712 -s 4 -d -1 -p AOMDV -e 102 -c 2 -a 0 -i 0 -k MAC 
- -t 4.070491712 -s 4 -d -1 -p AOMDV -e 102 -c 2 -a 0 -i 0 -k MAC
h -t 4.070491712 -s 4 -d -1 -p AOMDV -e 102 -c 2 -a 0 -i 0 -k MAC
r -t 4.071308504 -s 3 -d -1 -p AOMDV -e 44 -c 2 -a 0 -i 0 -k MAC
r -t 4.071333504 -s 3 -d -1 -p AOMDV -e 44 -c 2 -a 0 -i 0 -k RTR
+ -t 4.094660453 -s 0 -d -1 -p AOMDV -e 44 -c 2 -a 0 -i 0 -k RTR 
- -t 4.094660453 -s 0 -d -1 -p AOMDV -e 44 -c 2 -a 0 -i 0 -k RTR
h -t 4.094660453 -s 0 -d -1 -p AOMDV -e 44 -c 2 -a 0 -i 0 -k RTR
+ -t 4.095315453 -s 0 -d -1 -p AOMDV -e 102 -c 2 -a 0 -i 0 -k MAC 
- -t 4.095315453 -s 0 -d -1 -p AOMDV -e 102 -c 2 -a 0 -i 0 -k MAC
h -t 4.095315453 -s 0 -d -1 -p AOMDV -e 102 -c 2 -a 0 -i 0 -k MAC
r -t 4.096132166 -s 1 -d -1 -p AOMDV -e 44 -c 2 -a 0 -i 0 -k MAC
r -t 4.096157166 -s 1 -d -1 -p AOMDV -e 44 -c 2 -a 0 -i 0 -k RTR
+ -t 4.143253639 -s 1 -d -1 -p AOMDV -e 44 -c 2 -a 0 -i 0 -k RTR 
- -t 4.143253639 -s 1 -d -1 -p AOMDV -e 44 -c 2 -a 0 -i 0 -k RTR
h -t 4.143253639 -s 1 -d -1 -p AOMDV -e 44 -c 2 -a 0 -i 0 -k RTR
+ -t 4.143768639 -s 1 -d -1 -p AOMDV -e 102 -c 2 -a 0 -i 0 -k MAC 
- -t 4.143768639 -s 1 -d -1 -p AOMDV -e 102 -c 2 -a 0 -i 0 -k MAC
h -t 4.143768639 -s 1 -d -1 -p AOMDV -e 102 -c 2 -a 0 -i 0 -k MAC
r -t 4.144585352 -s 0 -d -1 -p AOMDV -e 44 -c 2 -a 0 -i 0 -k MAC
r -t 4.144585371 -s 2 -d -1 -p AOMDV -e 44 -c 2 -a 0 -i 0 -k MAC
r -t 4.144610352 -s 0 -d -1 -p AOMDV -e 44 -c 2 -a 0 -i 0 -k RTR
r -t 4.144610371 -s 2 -d -1 -p AOMDV -e 44 -c 2 -a 0 -i 0 -k RTR
+ -t 6.014998843 -s 1 -d -1 -p AOMDV -e 656 -c 2 -a 0 -i 0 -k RTR 
- -t 6.014998843 -s 1 -d -1 -p AOMDV -e 656 -c 2 -a 0 -i 0 -k RTR
h -t 6.014998843 -s 1 -d -1 -p AOMDV -e 656 -c 2 -a 0 -i 0 -k RTR
+ -t 6.015653843 -s 1 -d -1 -p AOMDV -e 714 -c 2 -a 0 -i 0 -k MAC 
- -t 6.015653843 -s 1 -d -1 -p AOMDV -e 714 -c 2 -a 0 -i 0 -k MAC
h -t 6.015653843 -s 1 -d -1 -p AOMDV -e 714 -c 2 -a 0 -i 0 -k MAC
r -t 6.021366556 -s 0 -d -1 -p AOMDV -e 656 -c 2 -a 0 -i 0 -k MAC
r -t 6.021366575 -s 2 -d -1 -p AOMDV -e 656 -c 2 -a 0 -i 0 -k MAC
r -t 6.021391556 -s 0 -d -1 -p AOMDV -e 656 -c 2 -a 0 -i 0 -k RTR
r -t 6.021391575 -s 2 -d -1 -p AOMDV -e 656 -c 2 -a 0 -i 0 -k RTR
+ -t 6.037360385 -s 4 -d -1 -p AOMDV -e 656 -c 2 -a 0 -i 0 -k RTR 
- -t 6.037360385 -s 4 -d -1 -p AOMDV -e 656 -c 2 -a 0 -i 0 -k RTR
h -t 6.037360385 -s 4 -d -1 -p AOMDV -e 656 -c 2 -a 0 -i 0 -k RTR
+ -t 6.037615385 -s 4 -d -1 -p AOMDV -e 714 -c 2 -a 0 -i 0 -k MAC 
- -t 6.037615385 -s 4 -d -1 -p AOMDV -e 714 -c 2 -a 0 -i 0 -k MAC
h -t 6.037615385 -s 4 -d -1 -p AOMDV -e 714 -c 2 -a 0 -i 0 -k MAC
+ -t 6.040637752 -s 2 -d -1 -p AOMDV -e 656 -c 2 -a 0 -i 0 -k RTR 
- -t 6.040637752 -s 2 -d -1 -p AOMDV -e 656 -c 2 -a 0 -i 0 -k RTR
h -t 6.040637752 -s 2 -d -1 -p AOMDV -e 656 -c 2 -a 0 -i 0 -k RTR
r -t 6.043328176 -s 3 -d -1 -p AOMDV -e 656 -c 2 -a 0 -i 0 -k MAC
r -t 6.043353176 -s 3 -d -1 -p AOMDV -e 656 -c 2 -a 0 -i 0 -k RTR
+ -t 6.043902957 -s 2 -d -1 -p AOMDV -e 714 -c 2 -a 0 -i 0 -k MAC 
- -t 6.043902957 -s 2 -d -1 -p AOMDV -e 714 -c 2 -a 0 -i 0 -k MAC
h -t 6.043902957 -s 2 -d -1 -p AOMDV -e 714 -c 2 -a 0 -i 0 -k MAC
r -t 6.049615689 -s 1 -d -1 -p AOMDV -e 656 -c 2 -a 0 -i 0 -k MAC
r -t 6.049615739 -s 3 -d -1 -p AOMDV -e 656 -c 2 -a 0 -i 0 -k MAC
r -t 6.049640689 -s 1 -d -1 -p AOMDV -e 656 -c 2 -a 0 -i 0 -k RTR
r -t 6.049640739 -s 3 -d -1 -p AOMDV -e 656 -c 2 -a 0 -i 0 -k RTR
+ -t 6.051198558 -s 3 -d -1 -p AOMDV -e 44 -c 2 -a 0 -i 0 -k RTR 
- -t 6.051198558 -s 3 -d -1 -p AOMDV -e 44 -c 2 -a 0 -i 0 -k RTR
h -t 6.051198558 -s 3 -d -1 -p AOMDV -e 44 -c 2 -a 0 -i 0 -k RTR
+ -t 6.051433558 -s 3 -d -1 -p AOMDV -e 102 -c 2 -a 0 -i 0 -k MAC 
- -t 6.051433558 -s 3 -d -1 -p AOMDV -e 102 -c 2 -a 0 -i 0 -k MAC
h -t 6.051433558 -s 3 -d -1 -p AOMDV -e 102 -c 2 -a 0 -i 0 -k MAC
r -t 6.052250339 -s 2 -d -1 -p AOMDV -e 44 -c 2 -a 0 -i 0 -k MAC
r -t 6.052250349 -s 4 -d -1 -p AOMDV -e 44 -c 2 -a 0 -i 0 -k MAC
r -t 6.052275339 -s 2 -d -1 -p AOMDV -e 44 -c 2 -a 0 -i 0 -k RTR
r -t 6.052275349 -s 4 -d -1 -p AOMDV -e 44 -c 2 -a 0 -i 0 -k RTR
+ -t 6.054612302 -s 3 -d -1 -p AOMDV -e 656 -c 2 -a 0 -i 0 -k RTR 
- -t 6.054612302 -s 3 -d -1 -p AOMDV -e 656 -c 2 -a 0 -i 0 -k RTR
h -t 6.054612302 -s 3 -d -1 -p AOMDV -e 656 -c 2 -a 0 -i 0 -k RTR
+ -t 6.054687302 -s 3 -d -1 -p AOMDV -e 714 -c 2 -a 0 -i 0 -k MAC 
- -t 6.054687302 -s 3 -d -1 -p AOMDV -e 714 -c 2 -a 0 -i 0 -k MAC