s 1.000000000 _0_ AGT  --- 0 cbr 1 [0 0 0 0] [energy 100.000000 ei 0.000 es 0.000 et 0.000 er 0.000] ------- [0:0 4:0 32 0] [0] 0 0
r 1.000000000 _0_ RTR  --- 0 cbr 1 [0 0 0 0] [energy 100.000000 ei 0.000 es 0.000 et 0.000 er 0.000] ------- [0:0 4:0 32 0] [0] 0 0
s 1.000000000 _0_ RTR  --- 0 AOMDV 52 [0 0 0 0] [energy 100.000000 ei 0.000 es 0.000 et 0.000 er 0.000] ------- [0:255 -1:255 30 0] [0x2 0 1 [4 0] [0 4]] (REQUEST)
s 1.000075000 _0_ MAC  --- 0 AOMDV 110 [0 ffffffff 0 800] [energy 100.000000 ei 0.000 es 0.000 et 0.000 er 0.000] ------- [0:255 -1:255 30 0] [0x2 0 1 [4 0] [0 4]] (REQUEST)
N -t 1.000076 -n 1 -e 99.964650
N -t 1.000076 -n 2 -e 99.964650
r 1.000955713 _1_ MAC  --- 0 AOMDV 52 [0 ffffffff 0 800] [energy 99.964650 ei 0.035 es 0.000 et 0.000 er 0.000] ------- [0:255 -1:255 30 0] [0x2 0 1 [4 0] [0 4]] (REQUEST)
r 1.000980713 _1_ RTR  --- 0 AOMDV 52 [0 ffffffff 0 800] [energy 99.964650 ei 0.035 es 0.000 et 0.000 er 0.000] ------- [0:255 -1:255 30 0] [0x2 0 1 [4 0] [0 4]] (REQUEST)
s 1.009145474 _1_ RTR  --- 0 AOMDV 52 [0 ffffffff 0 800] [energy 99.964650 ei 0.035 es 0.000 et 0.000 er 0.000] ------- [1:255 -1:255 29 0] [0x2 1 1 [4 0] [0 4]] (REQUEST)
s 1.009460474 _1_ MAC  --- 0 AOMDV 110 [0 ffffffff 1 800] [energy 99.964650 ei 0.035 es 0.000 et 0.000 er 0.000] ------- [1:255 -1:255 29 0] [0x2 1 1 [4 0] [0 4]] (REQUEST)
N -t 1.009461 -n 0 -e 99.963771
N -t 1.009461 -n 2 -e 99.964004
N -t 1.009462 -n 3 -e 99.964321
r 1.010341187 _0_ MAC  --- 0 AOMDV 52 [0 ffffffff 1 800] [energy 99.963771 ei 0.035 es 0.000 et 0.001 er 0.000] ------- [1:255 -1:255 29 0] [0x2 1 1 [4 0] [0 4]] (REQUEST)
r 1.010341206 _2_ MAC  --- 0 AOMDV 52 [0 ffffffff 1 800] [energy 99.964004 ei 0.035 es 0.000 et 0.000 er 0.001] ------- [1:255 -1:255 29 0] [0x2 1 1 [4 0] [0 4]] (REQUEST)
r 1.010366187 _0_ RTR  --- 0 AOMDV 52 [0 ffffffff 1 800] [energy 99.963771 ei 0.035 es 0.000 et 0.001 er 0.000] ------- [1:255 -1:255 29 0] [0x2 1 1 [4 0] [0 4]] (REQUEST)
r 1.010366206 _2_ RTR  --- 0 AOMDV 52 [0 ffffffff 1 800] [energy 99.964004 ei 0.035 es 0.000 et 0.000 er 0.001] ------- [1:255 -1:255 29 0] [0x2 1 1 [4 0] [0 4]] (REQUEST)
s 1.013456996 _2_ RTR  --- 0 AOMDV 52 [0 ffffffff 1 800] [energy 99.964004 ei 0.035 es 0.000 et 0.000 er 0.001] ------- [2:255 -1:255 28 0] [0x2 2 1 [4 0] [0 4]] (REQUEST)
s 1.013771996 _2_ MAC  --- 0 AOMDV 110 [0 ffffffff 2 800] [energy 99.964004 ei 0.035 es 0.000 et 0.000 er 0.001] ------- [2:255 -1:255 28 0] [0x2 2 1 [4 0] [0 4]] (REQUEST)
N -t 1.013773 -n 1 -e 99.963304
N -t 1.013773 -n 3 -e 99.963854
N -t 1.013773 -n 0 -e 99.963304
N -t 1.013774 -n 4 -e 99.964170
r 1.014652728 _1_ MAC  --- 0 AOMDV 52 [0 ffffffff 2 800] [energy 99.963304 ei 0.035 es 0.000 et 0.001 er 0.001] ------- [2:255 -1:255 28 0] [0x2 2 1 [4 0] [0 4]] (REQUEST)
r 1.014652778 _3_ MAC  --- 0 AOMDV 52 [0 ffffffff 2 800] [energy 99.963854 ei 0.035 es 0.000 et 0.000 er 0.001] ------- [2:255 -1:255 28 0] [0x2 2 1 [4 0] [0 4]] (REQUEST)
r 1.014677728 _1_ RTR  --- 0 AOMDV 52 [0 ffffffff 2 800] [energy 99.963304 ei 0.035 es 0.000 et 0.001 er 0.001] ------- [2:255 -1:255 28 0] [0x2 2 1 [4 0] [0 4]] (REQUEST)
r 1.014677778 _3_ RTR  --- 0 AOMDV 52 [0 ffffffff 2 800] [energy 99.963854 ei 0.035 es 0.000 et 0.000 er 0.001] ------- [2:255 -1:255 28 0] [0x2 2 1 [4 0] [0 4]] (REQUEST)
s 1.015105723 _3_ RTR  --- 0 AOMDV 52 [0 ffffffff 2 800] [energy 99.963854 ei 0.035 es 0.000 et 0.000 er 0.001] ------- [3:255 -1:255 27 0] [0x2 3 1 [4 0] [0 4]] (REQUEST)
s 1.015340723 _3_ MAC  --- 0 AOMDV 110 [0 ffffffff 3 800] [energy 99.963854 ei 0.035 es 0.000 et 0.000 er 0.001] ------- [3:255 -1:255 27 0] [0x2 3 1 [4 0] [0 4]] (REQUEST)
N -t 1.015342 -n 2 -e 99.962932
N -t 1.015342 -n 4 -e 99.963799
N -t 1.015342 -n 1 -e 99.962932
r 1.016221505 _2_ MAC  --- 0 AOMDV 52 [0 ffffffff 3 800] [energy 99.962932 ei 0.035 es 0.000 et 0.001 er 0.001] ------- [3:255 -1:255 27 0] [0x2 3 1 [4 0] [0 4]] (REQUEST)
r 1.016221515 _4_ MAC  --- 0 AOMDV 52 [0 ffffffff 3 800] [energy 99.963799 ei 0.036 es 0.000 et 0.000 er 0.001] ------- [3:255 -1:255 27 0] [0x2 3 1 [4 0] [0 4]] (REQUEST)
r 1.016246505 _2_ RTR  --- 0 AOMDV 52 [0 ffffffff 3 800] [energy 99.962932 ei 0.035 es 0.000 et 0.001 er 0.001] ------- [3:255 -1:255 27 0] [0x2 3 1 [4 0] [0 4]] (REQUEST)
r 1.016246515 _4_ RTR  --- 0 AOMDV 52 [0 ffffffff 3 800] [energy 99.963799 ei 0.036 es 0.000 et 0.000 er 0.001] ------- [3:255 -1:255 27 0] [0x2 3 1 [4 0] [0 4]] (REQUEST)
s 1.016246515 _4_ RTR  --- 0 AOMDV 52 [0 0 0 0] [energy 99.963799 ei 0.036 es 0.000 et 0.000 er 0.001] ------- [4:255 0:255 30 3] [0x4 0 [4 2] 10.000000] (REPLY) [1 3]
s 1.016541515 _4_ MAC  --- 0 ARP 86 [0 ffffffff 4 806] [energy 99.963799 ei 0.036 es 0.000 et 0.000 er 0.001] ------- [REQUEST 4/4 0/3]
N -t 1.016542 -n 3 -e 99.962966
N -t 1.016543 -n 2 -e 99.962649
r 1.017230306 _3_ MAC  --- 0 ARP 28 [0 ffffffff 4 806] [energy 99.962966 ei 0.035 es 0.000 et 0.001 er 0.001] ------- [REQUEST 4/4 0/3]
s 1.017380306 _3_ MAC  --- 0 RTS 44 [52e 4 3 0] [energy 99.962966 ei 0.035 es 0.000 et 0.001 er 0.001] 
N -t 1.017381 -n 2 -e 99.962505
N -t 1.017381 -n 4 -e 99.963189
N -t 1.017382 -n 1 -e 99.962752
r 1.017733098 _4_ MAC  --- 0 RTS 44 [52e 4 3 0] [energy 99.963189 ei 0.036 es 0.000 et 0.000 er 0.001] 
s 1.017743098 _4_ MAC  --- 0 CTS 38 [3f4 3 0 0] [energy 99.963189 ei 0.036 es 0.000 et 0.000 er 0.001] 
N -t 1.017744 -n 3 -e 99.962608
N -t 1.017745 -n 2 -e 99.962384
r 1.018047890 _3_ MAC  --- 0 CTS 38 [3f4 3 0 0] [energy 99.962608 ei 0.035 es 0.000 et 0.001 er 0.001] 
s 1.018057890 _3_ MAC  --- 0 ARP 86 [13a 4 3 806] [energy 99.962608 ei 0.035 es 0.000 et 0.001 er 0.001] ------- [REPLY 3/3 4/4]
N -t 1.018059 -n 2 -e 99.962112
N -t 1.018059 -n 4 -e 99.962716
N -t 1.018059 -n 1 -e 99.962469
r 1.018746681 _4_ MAC  --- 0 ARP 28 [13a 4 3 806] [energy 99.962716 ei 0.036 es 0.000 et 0.001 er 0.001] ------- [REPLY 3/3 4/4]
s 1.018756681 _4_ MAC  --- 0 ACK 38 [0 3 0 0] [energy 99.962716 ei 0.036 es 0.000 et 0.001 er 0.001] 
N -t 1.018757 -n 3 -e 99.962033
N -t 1.018758 -n 2 -e 99.961991
r 1.019061473 _3_ MAC  --- 0 ACK 38 [0 3 0 0] [energy 99.962033 ei 0.035 es 0.000 et 0.001 er 0.001] 
s 1.019170681 _4_ MAC  --- 0 RTS 44 [5ee 3 4 0] [energy 99.962515 ei 0.036 es 0.000 et 0.001 er 0.001] 
N -t 1.019171 -n 3 -e 99.961890
N -t 1.019172 -n 2 -e 99.961849
r 1.019523473 _3_ MAC  --- 0 RTS 44 [5ee 3 4 0] [energy 99.961890 ei 0.035 es 0.000 et 0.001 er 0.001] 
s 1.019533473 _3_ MAC  --- 0 CTS 38 [4b4 4 0 0] [energy 99.961890 ei 0.035 es 0.000 et 0.001 er 0.001] 
N -t 1.019534 -n 2 -e 99.961728
N -t 1.019534 -n 4 -e 99.962158
N -t 1.019535 -n 1 -e 99.962321
r 1.019838264 _4_ MAC  --- 0 CTS 38 [4b4 4 0 0] [energy 99.962158 ei 0.036 es 0.000 et 0.001 er 0.001] 
s 1.019848264 _4_ MAC  --- 0 AOMDV 110 [13a 3 4 800] [energy 99.962158 ei 0.036 es 0.000 et 0.001 er 0.001] ------- [4:255 0:255 30 3] [0x4 0 [4 2] 10.000000] (REPLY) [1 3]
N -t 1.019849 -n 3 -e 99.961341
N -t 1.019850 -n 2 -e 99.961380
r 1.020729056 _3_ MAC  --- 0 AOMDV 52 [13a 3 4 800] [energy 99.961341 ei 0.035 es 0.000 et 0.001 er 0.002] ------- [4:255 0:255 30 3] [0x4 0 [4 2] 10.000000] (REPLY) [1 3]
s 1.020739056 _3_ MAC  --- 0 ACK 38 [0 4 0 0] [energy 99.961341 ei 0.035 es 0.000 et 0.001 er 0.002] 
N -t 1.020740 -n 2 -e 99.961260
N -t 1.020740 -n 4 -e 99.961457
N -t 1.020741 -n 1 -e 99.962170
r 1.020754056 _3_ RTR  --- 0 AOMDV 52 [13a 3 4 800] [energy 99.961140 ei 0.035 es 0.000 et 0.002 er 0.002] ------- [4:255 0:255 30 3] [0x4 0 [4 2] 10.000000] (REPLY) [1 3]
f 1.020754056 _3_ RTR  --- 0 AOMDV 52 [13a 3 4 800] [energy 99.961140 ei 0.035 es 0.000 et 0.002 er 0.002] ------- [4:255 0:255 29 2] [0x4 1 [4 2] 10.000000] (REPLY) [1 3]
r 1.021043847 _4_ MAC  --- 0 ACK 38 [0 4 0 0] [energy 99.961457 ei 0.036 es 0.000 et 0.002 er 0.001] 
s 1.021533056 _3_ MAC  --- 0 ARP 86 [0 ffffffff 3 806] [energy 99.961140 ei 0.035 es 0.000 et 0.002 er 0.002] ------- [REQUEST 3/3 0/2]
N -t 1.021534 -n 2 -e 99.960971
N -t 1.021534 -n 4 -e 99.961168
N -t 1.021535 -n 1 -e 99.961881
r 1.022221837 _2_ MAC  --- 0 ARP 28 [0 ffffffff 3 806] [energy 99.960971 ei 0.035 es 0.000 et 0.001 er 0.003] ------- [REQUEST 3/3 0/2]
r 1.022221847 _4_ MAC  --- 0 ARP 28 [0 ffffffff 3 806] [energy 99.961168 ei 0.036 es 0.000 et 0.002 er 0.002] ------- [REQUEST 3/3 0/2]
s 1.022476837 _2_ MAC  --- 0 RTS 44 [52e 3 2 0] [energy 99.960971 ei 0.035 es 0.000 et 0.001 er 0.003] 
N -t 1.022478 -n 1 -e 99.961733
N -t 1.022478 -n 3 -e 99.960521
N -t 1.022478 -n 0 -e 99.962891
N -t 1.022478 -n 4 -e 99.961020
r 1.022829619 _3_ MAC  --- 0 RTS 44 [52e 3 2 0] [energy 99.960521 ei 0.036 es 0.000 et 0.002 er 0.002] 
s 1.022839619 _3_ MAC  --- 0 CTS 38 [3f4 2 0 0] [energy 99.960521 ei 0.036 es 0.000 et 0.002 er 0.002] 
N -t 1.022840 -n 2 -e 99.960609
N -t 1.022840 -n 4 -e 99.960899
N -t 1.022841 -n 1 -e 99.961612
r 1.023144400 _2_ MAC  --- 0 CTS 38 [3f4 2 0 0] [energy 99.960609 ei 0.035 es 0.000 et 0.001 er 0.003] 
s 1.023154400 _2_ MAC  --- 0 ARP 86 [13a 3 2 806] [energy 99.960609 ei 0.035 es 0.000 et 0.001 er 0.003] ------- [REPLY 2/2 3/3]
N -t 1.023155 -n 1 -e 99.961340
N -t 1.023155 -n 3 -e 99.960047
N -t 1.023156 -n 0 -e 99.962607
N -t 1.023156 -n 4 -e 99.960627
r 1.023843182 _3_ MAC  --- 0 ARP 28 [13a 3 2 806] [energy 99.960047 ei 0.036 es 0.000 et 0.002 er 0.002] ------- [REPLY 2/2 3/3]
s 1.023853182 _3_ MAC  --- 0 ACK 38 [0 2 0 0] [energy 99.960047 ei 0.036 es 0.000 et 0.002 er 0.002] 
N -t 1.023854 -n 2 -e 99.960034
N -t 1.023854 -n 4 -e 99.960507
N -t 1.023855 -n 1 -e 99.961220
r 1.024157963 _2_ MAC  --- 0 ACK 38 [0 2 0 0] [energy 99.960034 ei 0.035 es 0.000 et 0.001 er 0.003] 
s 1.024327182 _3_ MAC  --- 0 RTS 44 [5ee 2 3 0] [energy 99.959846 ei 0.036 es 0.000 et 0.003 er 0.002] 
N -t 1.024328 -n 2 -e 99.959889
N -t 1.024328 -n 4 -e 99.960362
N -t 1.024329 -n 1 -e 99.961075
r 1.024679963 _2_ MAC  --- 0 RTS 44 [5ee 2 3 0] [energy 99.959889 ei 0.036 es 0.000 et 0.001 er 0.003] 
s 1.024689963 _2_ MAC  --- 0 CTS 38 [4b4 3 0 0] [energy 99.959889 ei 0.036 es 0.000 et 0.001 er 0.003] 
N -t 1.024691 -n 1 -e 99.960954
N -t 1.024691 -n 3 -e 99.959488
N -t 1.024691 -n 0 -e 99.962458
N -t 1.024692 -n 4 -e 99.960241
r 1.024994745 _3_ MAC  --- 0 CTS 38 [4b4 3 0 0] [energy 99.959488 ei 0.036 es 0.000 et 0.003 er 0.002] 
s 1.025004745 _3_ MAC  --- 0 AOMDV 110 [13a 2 3 800] [energy 99.959488 ei 0.036 es 0.000 et 0.003 er 0.002] ------- [4:255 0:255 29 2] [0x4 1 [4 2] 10.000000] (REPLY) [1 3]
N -t 1.025006 -n 2 -e 99.959340
N -t 1.025006 -n 4 -e 99.959893
N -t 1.025006 -n 1 -e 99.960606
r 1.025885526 _2_ MAC  --- 0 AOMDV 52 [13a 2 3 800] [energy 99.959340 ei 0.036 es 0.000 et 0.001 er 0.004] ------- [4:255 0:255 29 2] [0x4 1 [4 2] 10.000000] (REPLY) [1 3]
s 1.025895526 _2_ MAC  --- 0 ACK 38 [0 3 0 0] [energy 99.959340 ei 0.036 es 0.000 et 0.001 er 0.004] 
N -t 1.025896 -n 1 -e 99.960486
N -t 1.025896 -n 3 -e 99.958786
N -t 1.025897 -n 0 -e 99.962306
N -t 1.025897 -n 4 -e 99.959773
r 1.025910526 _2_ RTR  --- 0 AOMDV 52 [13a 2 3 800] [energy 99.959139 ei 0.036 es 0.000 et 0.002 er 0.004] ------- [4:255 0:255 29 2] [0x4 1 [4 2] 10.000000] (REPLY) [1 3]
f 1.025910526 _2_ RTR  --- 0 AOMDV 52 [13a 2 3 800] [energy 99.959139 ei 0.036 es 0.000 et 0.002 er 0.004] ------- [4:255 0:255 28 1] [0x4 2 [4 2] 10.000000] (REPLY) [1 3]
r 1.026200308 _3_ MAC  --- 0 ACK 38 [0 3 0 0] [energy 99.958786 ei 0.036 es 0.000 et 0.003 er 0.002] 
s 1.026369526 _2_ MAC  --- 0 ARP 86 [0 ffffffff 2 806] [energy 99.959139 ei 0.036 es 0.000 et 0.002 er 0.004] ------- [REQUEST 2/2 0/1]
N -t 1.026370 -n 1 -e 99.960208
N -t 1.026370 -n 3 -e 99.958508
N -t 1.026371 -n 0 -e 99.962028
N -t 1.026371 -n 4 -e 99.959495
r 1.027058258 _1_ MAC  --- 0 ARP 28 [0 ffffffff 2 806] [energy 99.960208 ei 0.036 es 0.000 et 0.001 er 0.004] ------- [REQUEST 2/2 0/1]
r 1.027058308 _3_ MAC  --- 0 ARP 28 [0 ffffffff 2 806] [energy 99.958508 ei 0.036 es 0.000 et 0.003 er 0.003] ------- [REQUEST 2/2 0/1]
s 1.027553258 _1_ MAC  --- 0 RTS 44 [52e 2 1 0] [energy 99.960208 ei 0.036 es 0.000 et 0.001 er 0.004] 
N -t 1.027554 -n 0 -e 99.961872
N -t 1.027554 -n 2 -e 99.958523
N -t 1.027555 -n 3 -e 99.958352
r 1.027905990 _2_ MAC  --- 0 RTS 44 [52e 2 1 0] [energy 99.958523 ei 0.036 es 0.000 et 0.002 er 0.004] 
s 1.027915990 _2_ MAC  --- 0 CTS 38 [3f4 1 0 0] [energy 99.958523 ei 0.036 es 0.000 et 0.002 er 0.004] 
N -t 1.027917 -n 1 -e 99.959838
N -t 1.027917 -n 3 -e 99.958231
N -t 1.027917 -n 0 -e 99.961752
N -t 1.027918 -n 4 -e 99.959345
r 1.028220721 _1_ MAC  --- 0 CTS 38 [3f4 1 0 0] [energy 99.959838 ei 0.036 es 0.000 et 0.001 er 0.004] 
s 1.028230721 _1_ MAC  --- 0 ARP 86 [13a 2 1 806] [energy 99.959838 ei 0.036 es 0.000 et 0.001 er 0.004] ------- [REPLY 1/1 2/2]
N -t 1.028231 -n 0 -e 99.961479
N -t 1.028231 -n 2 -e 99.958050
N -t 1.028232 -n 3 -e 99.957959
r 1.028919453 _2_ MAC  --- 0 ARP 28 [13a 2 1 806] [energy 99.958050 ei 0.036 es 0.000 et 0.002 er 0.004] ------- [REPLY 1/1 2/2]
s 1.028929453 _2_ MAC  --- 0 ACK 38 [0 1 0 0] [energy 99.958050 ei 0.036 es 0.000 et 0.002 er 0.004] 
N -t 1.028930 -n 1 -e 99.959263
N -t 1.028930 -n 3 -e 99.957839
N -t 1.028931 -n 0 -e 99.961359
N -t 1.028931 -n 4 -e 99.959200
r 1.029234185 _1_ MAC  --- 0 ACK 38 [0 1 0 0] [energy 99.959263 ei 0.036 es 0.000 et 0.001 er 0.004] 
s 1.029463453 _2_ MAC  --- 0 RTS 44 [5ee 1 2 0] [energy 99.957849 ei 0.036 es 0.000 et 0.003 er 0.004] 
N -t 1.029464 -n 1 -e 99.959116
N -t 1.029464 -n 3 -e 99.957692
N -t 1.029465 -n 0 -e 99.961212
N -t 1.029465 -n 4 -e 99.959053
r 1.029816185 _1_ MAC  --- 0 RTS 44 [5ee 1 2 0] [energy 99.959116 ei 0.036 es 0.000 et 0.001 er 0.004] 
s 1.029826185 _1_ MAC  --- 0 CTS 38 [4b4 2 0 0] [energy 99.959116 ei 0.036 es 0.000 et 0.001 er 0.004] 
N -t 1.029827 -n 0 -e 99.961091
N -t 1.029827 -n 2 -e 99.957488
N -t 1.029828 -n 3 -e 99.957571
r 1.030130917 _2_ MAC  --- 0 CTS 38 [4b4 2 0 0] [energy 99.957488 ei 0.036 es 0.000 et 0.003 er 0.004] 
s 1.030140917 _2_ MAC  --- 0 AOMDV 110 [13a 1 2 800] [energy 99.957488 ei 0.036 es 0.000 et 0.003 er 0.004] ------- [4:255 0:255 28 1] [0x4 2 [4 2] 10.000000] (REPLY) [1 3]
N -t 1.030142 -n 1 -e 99.958567
N -t 1.030142 -n 3 -e 99.957223
N -t 1.030142 -n 0 -e 99.960743
N -t 1.030142 -n 4 -e 99.958694
r 1.031021648 _1_ MAC  --- 0 AOMDV 52 [13a 1 2 800] [energy 99.958567 ei 0.036 es 0.000 et 0.001 er 0.004] ------- [4:255 0:255 28 1] [0x4 2 [4 2] 10.000000] (REPLY) [1 3]
s 1.031031648 _1_ MAC  --- 0 ACK 38 [0 2 0 0] [energy 99.958567 ei 0.036 es 0.000 et 0.001 er 0.004] 
N -t 1.031032 -n 0 -e 99.960623
N -t 1.031032 -n 2 -e 99.956786
N -t 1.031033 -n 3 -e 99.957103
r 1.031046648 _1_ RTR  --- 0 AOMDV 52 [13a 1 2 800] [energy 99.958366 ei 0.036 es 0.000 et 0.002 er 0.004] ------- [4:255 0:255 28 1] [0x4 2 [4 2] 10.000000] (REPLY) [1 3]
f 1.031046648 _1_ RTR  --- 0 AOMDV 52 [13a 1 2 800] [energy 99.958366 ei 0.036 es 0.000 et 0.002 er 0.004] ------- [4:255 0:255 27 0] [0x4 3 [4 2] 10.000000] (REPLY) [1 3]
r 1.031336380 _2_ MAC  --- 0 ACK 38 [0 2 0 0] [energy 99.956786 ei 0.036 es 0.000 et 0.003 er 0.004] 
s 1.031805648 _1_ MAC  --- 0 ARP 86 [0 ffffffff 1 806] [energy 99.958366 ei 0.036 es 0.000 et 0.002 er 0.004] ------- [REQUEST 1/1 0/0]
N -t 1.031806 -n 0 -e 99.960335
N -t 1.031806 -n 2 -e 99.956498
N -t 1.031807 -n 3 -e 99.956815
r 1.032494362 _0_ MAC  --- 0 ARP 28 [0 ffffffff 1 806] [energy 99.960335 ei 0.036 es 0.000 et 0.001 er 0.003] ------- [REQUEST 1/1 0/0]
r 1.032494380 _2_ MAC  --- 0 ARP 28 [0 ffffffff 1 806] [energy 99.956498 ei 0.036 es 0.000 et 0.003 er 0.005] ------- [REQUEST 1/1 0/0]
s 1.032909362 _0_ MAC  --- 0 RTS 44 [52e 1 0 0] [energy 99.960335 ei 0.036 es 0.000 et 0.001 er 0.003] 
N -t 1.032910 -n 1 -e 99.957742
N -t 1.032911 -n 2 -e 99.956344
r 1.033262075 _1_ MAC  --- 0 RTS 44 [52e 1 0 0] [energy 99.957742 ei 0.036 es 0.000 et 0.002 er 0.004] 
s 1.033272075 _1_ MAC  --- 0 CTS 38 [3f4 0 0 0] [energy 99.957742 ei 0.036 es 0.000 et 0.002 er 0.004] 
N -t 1.033273 -n 0 -e 99.959967
N -t 1.033273 -n 2 -e 99.956224
N -t 1.033274 -n 3 -e 99.956667
r 1.033576788 _0_ MAC  --- 0 CTS 38 [3f4 0 0 0] [energy 99.959967 ei 0.036 es 0.000 et 0.001 er 0.003] 
s 1.033586788 _0_ MAC  --- 0 ARP 86 [13a 1 0 806] [energy 99.959967 ei 0.036 es 0.000 et 0.001 er 0.003] ------- [REPLY 0/0 1/1]
N -t 1.033588 -n 1 -e 99.957269
N -t 1.033588 -n 2 -e 99.955952
r 1.034275502 _1_ MAC  --- 0 ARP 28 [13a 1 0 806] [energy 99.957269 ei 0.036 es 0.000 et 0.002 er 0.005] ------- [REPLY 0/0 1/1]
s 1.034285502 _1_ MAC  --- 0 ACK 38 [0 0 0 0] [energy 99.957269 ei 0.036 es 0.000 et 0.002 er 0.005] 
N -t 1.034286 -n 0 -e 99.959393
N -t 1.034286 -n 2 -e 99.955831
N -t 1.034287 -n 3 -e 99.956522
r 1.034590215 _0_ MAC  --- 0 ACK 38 [0 0 0 0] [energy 99.959393 ei 0.036 es 0.000 et 0.001 er 0.004] 
s 1.034819502 _1_ MAC  --- 0 RTS 44 [5ee 0 1 0] [energy 99.957068 ei 0.036 es 0.000 et 0.003 er 0.005] 
N -t 1.034820 -n 0 -e 99.959245
N -t 1.034820 -n 2 -e 99.955684
N -t 1.034821 -n 3 -e 99.956375
r 1.035172215 _0_ MAC  --- 0 RTS 44 [5ee 0 1 0] [energy 99.959245 ei 0.036 es 0.000 et 0.001 er 0.004] 
s 1.035182215 _0_ MAC  --- 0 CTS 38 [4b4 1 0 0] [energy 99.959245 ei 0.036 es 0.000 et 0.001 er 0.004] 
N -t 1.035183 -n 1 -e 99.956707
N -t 1.035184 -n 2 -e 99.955564
r 1.035486928 _1_ MAC  --- 0 CTS 38 [4b4 1 0 0] [energy 99.956707 ei 0.036 es 0.000 et 0.003 er 0.005] 
s 1.035496928 _1_ MAC  --- 0 AOMDV 110 [13a 0 1 800] [energy 99.956707 ei 0.036 es 0.000 et 0.003 er 0.005] ------- [4:255 0:255 27 0] [0x4 3 [4 2] 10.000000] (REPLY) [1 3]
N -t 1.035498 -n 0 -e 99.958696
N -t 1.035498 -n 2 -e 99.955216
N -t 1.035498 -n 3 -e 99.956016
r 1.036377642 _0_ MAC  --- 0 AOMDV 52 [13a 0 1 800] [energy 99.958696 ei 0.036 es 0.000 et 0.001 er 0.004] ------- [4:255 0:255 27 0] [0x4 3 [4 2] 10.000000] (REPLY) [1 3]
s 1.036387642 _0_ MAC  --- 0 ACK 38 [0 1 0 0] [energy 99.958696 ei 0.036 es 0.000 et 0.001 er 0.004] 
N -t 1.036388 -n 1 -e 99.956005
N -t 1.036389 -n 2 -e 99.955095
r 1.036402642 _0_ RTR  --- 0 AOMDV 52 [13a 0 1 800] [energy 99.958495 ei 0.036 es 0.000 et 0.002 er 0.004] ------- [4:255 0:255 27 0] [0x4 3 [4 2] 10.000000] (REPLY) [1 3]
s 1.036402642 _0_ RTR  --- 0 cbr 21 [0 0 0 0] [energy 99.958495 ei 0.036 es 0.000 et 0.002 er 0.004] ------- [0:0 4:0 30 1] [0] 0 0
r 1.036692355 _1_ MAC  --- 0 ACK 38 [0 1 0 0] [energy 99.956005 ei 0.036 es 0.000 et 0.003 er 0.005] 
s 1.037041642 _0_ MAC  --- 0 RTS 44 [4f6 1 0 0] [energy 99.958495 ei 0.036 es 0.000 et 0.002 er 0.004] 
N -t 1.037042 -n 1 -e 99.955854
N -t 1.037043 -n 2 -e 99.954944
r 1.037394355 _1_ MAC  --- 0 RTS 44 [4f6 1 0 0] [energy 99.955854 ei 0.036 es 0.000 et 0.003 er 0.005] 
s 1.037404355 _1_ MAC  --- 0 CTS 38 [3bc 0 0 0] [energy 99.955854 ei 0.036 es 0.000 et 0.003 er 0.005] 
N -t 1.037405 -n 0 -e 99.958130
N -t 1.037405 -n 2 -e 99.954824
N -t 1.037406 -n 3 -e 99.955860
r 1.037709069 _0_ MAC  --- 0 CTS 38 [3bc 0 0 0] [energy 99.958130 ei 0.036 es 0.000 et 0.002 er 0.004] 
s 1.037719069 _0_ MAC  --- 0 cbr 79 [13a 1 0 800] [energy 99.958130 ei 0.036 es 0.000 et 0.002 er 0.004] ------- [0:0 4:0 30 1] [0] 0 0
N -t 1.037720 -n 1 -e 99.955403
N -t 1.037721 -n 2 -e 99.954574
r 1.038351782 _1_ MAC  --- 0 cbr 21 [13a 1 0 800] [energy 99.955403 ei 0.036 es 0.000 et 0.004 er 0.005] ------- [0:0 4:0 30 1] [0] 1 0
s 1.038361782 _1_ MAC  --- 0 ACK 38 [0 0 0 0] [energy 99.955403 ei 0.036 es 0.000 et 0.004 er 0.005] 
N -t 1.038362 -n 0 -e 99.957592
N -t 1.038363 -n 2 -e 99.954453
N -t 1.038363 -n 3 -e 99.955717
r 1.038376782 _1_ RTR  --- 0 cbr 21 [13a 1 0 800] [energy 99.955202 ei 0.036 es 0.000 et 0.004 er 0.005] ------- [0:0 4:0 30 1] [0] 1 0
f 1.038376782 _1_ RTR  --- 0 cbr 21 [13a 1 0 800] [energy 99.955202 ei 0.036 es 0.000 et 0.004 er 0.005] ------- [0:0 4:0 29 2] [0] 1 0
r 1.038666495 _0_ MAC  --- 0 ACK 38 [0 0 0 0] [energy 99.957592 ei 0.036 es 0.000 et 0.002 er 0.004] 
s 1.038795782 _1_ MAC  --- 0 RTS 44 [4f6 2 1 0] [energy 99.955202 ei 0.036 es 0.000 et 0.004 er 0.005] 
N -t 1.038796 -n 0 -e 99.957449
N -t 1.038797 -n 2 -e 99.954309
N -t 1.038797 -n 3 -e 99.955574
r 1.039148514 _2_ MAC  --- 0 RTS 44 [4f6 2 1 0] [energy 99.954309 ei 0.036 es 0.000 et 0.003 er 0.007] 
s 1.039158514 _2_ MAC  --- 0 CTS 38 [3bc 1 0 0] [energy 99.954309 ei 0.036 es 0.000 et 0.003 er 0.007] 
N -t 1.039159 -n 1 -e 99.954845
N -t 1.039159 -n 3 -e 99.955453
N -t 1.039160 -n 0 -e 99.957328
N -t 1.039160 -n 4 -e 99.958289
r 1.039463245 _1_ MAC  --- 0 CTS 38 [3bc 1 0 0] [energy 99.954845 ei 0.036 es 0.000 et 0.004 er 0.006] 
s 1.039473245 _1_ MAC  --- 0 cbr 79 [13a 2 1 800] [energy 99.954845 ei 0.036 es 0.000 et 0.004 er 0.006] ------- [0:0 4:0 29 2] [0] 1 0
N -t 1.039474 -n 0 -e 99.957078
N -t 1.039474 -n 2 -e 99.953858
N -t 1.039475 -n 3 -e 99.955203
r 1.040105977 _2_ MAC  --- 0 cbr 21 [13a 2 1 800] [energy 99.953858 ei 0.036 es 0.000 et 0.004 er 0.007] ------- [0:0 4:0 29 2] [0] 2 0
s 1.040115977 _2_ MAC  --- 0 ACK 38 [0 1 0 0] [energy 99.953858 ei 0.036 es 0.000 et 0.004 er 0.007] 
N -t 1.040117 -n 1 -e 99.954307
N -t 1.040117 -n 3 -e 99.955083
N -t 1.040117 -n 0 -e 99.956958
N -t 1.040118 -n 4 -e 99.958146
r 1.040130977 _2_ RTR  --- 0 cbr 21 [13a 2 1 800] [energy 99.953657 ei 0.036 es 0.000 et 0.004 er 0.007] ------- [0:0 4:0 29 2] [0] 2 0
f 1.040130977 _2_ RTR  --- 0 cbr 21 [13a 2 1 800] [energy 99.953657 ei 0.036 es 0.000 et 0.004 er 0.007] ------- [0:0 4:0 28 3] [0] 2 0
r 1.040420709 _1_ MAC  --- 0 ACK 38 [0 1 0 0] [energy 99.954307 ei 0.036 es 0.000 et 0.004 er 0.006] 
s 1.040549977 _2_ MAC  --- 0 RTS 44 [4f6 3 2 0] [energy 99.953657 ei 0.036 es 0.000 et 0.004 er 0.007] 
N -t 1.040551 -n 1 -e 99.954163
N -t 1.040551 -n 3 -e 99.954939
N -t 1.040551 -n 0 -e 99.956814
N -t 1.040552 -n 4 -e 99.958002
r 1.040902759 _3_ MAC  --- 0 RTS 44 [4f6 3 2 0] [energy 99.954939 ei 0.036 es 0.000 et 0.003 er 0.006] 
s 1.040912759 _3_ MAC  --- 0 CTS 38 [3bc 2 0 0] [energy 99.954939 ei 0.036 es 0.000 et 0.003 er 0.006] 
N -t 1.040914 -n 2 -e 99.953300
N -t 1.040914 -n 4 -e 99.957882
N -t 1.040914 -n 1 -e 99.954043
r 1.041217540 _2_ MAC  --- 0 CTS 38 [3bc 2 0 0] [energy 99.953300 ei 0.036 es 0.000 et 0.004 er 0.007] 
s 1.041227540 _2_ MAC  --- 0 cbr 79 [13a 3 2 800] [energy 99.953300 ei 0.036 es 0.000 et 0.004 er 0.007] ------- [0:0 4:0 28 3] [0] 2 0
N -t 1.041228 -n 1 -e 99.953793
N -t 1.041228 -n 3 -e 99.954488
N -t 1.041229 -n 0 -e 99.956553
N -t 1.041229 -n 4 -e 99.957632
r 1.041860321 _3_ MAC  --- 0 cbr 21 [13a 3 2 800] [energy 99.954488 ei 0.036 es 0.000 et 0.004 er 0.006] ------- [0:0 4:0 28 3] [0] 3 0
s 1.041870321 _3_ MAC  --- 0 ACK 38 [0 2 0 0] [energy 99.954488 ei 0.036 es 0.000 et 0.004 er 0.006] 
N -t 1.041871 -n 2 -e 99.952762
N -t 1.041871 -n 4 -e 99.957512
N -t 1.041872 -n 1 -e 99.953672
r 1.041885321 _3_ RTR  --- 0 cbr 21 [13a 3 2 800] [energy 99.954287 ei 0.036 es 0.000 et 0.004 er 0.006] ------- [0:0 4:0 28 3] [0] 3 0
f 1.041885321 _3_ RTR  --- 0 cbr 21 [13a 3 2 800] [energy 99.954287 ei 0.036 es 0.000 et 0.004 er 0.006] ------- [0:0 4:0 27 4] [0] 3 0
r 1.042175103 _2_ MAC  --- 0 ACK 38 [0 2 0 0] [energy 99.952762 ei 0.036 es 0.000 et 0.004 er 0.007] 
s 1.042424321 _3_ MAC  --- 0 RTS 44 [4f6 4 3 0] [energy 99.954287 ei 0.036 es 0.000 et 0.004 er 0.006] 
N -t 1.042425 -n 2 -e 99.952614
N -t 1.042425 -n 4 -e 99.957364
N -t 1.042426 -n 1 -e 99.953524
r 1.042777113 _4_ MAC  --- 0 RTS 44 [4f6 4 3 0] [energy 99.957364 ei 0.036 es 0.000 et 0.002 er 0.005] 
s 1.042787113 _4_ MAC  --- 0 CTS 38 [3bc 3 0 0] [energy 99.957364 ei 0.036 es 0.000 et 0.002 er 0.005] 
N -t 1.042788 -n 3 -e 99.953926
N -t 1.042789 -n 2 -e 99.952494
r 1.043091905 _3_ MAC  --- 0 CTS 38 [3bc 3 0 0] [energy 99.953926 ei 0.036 es 0.000 et 0.004 er 0.006] 
s 1.043101905 _3_ MAC  --- 0 cbr 79 [13a 4 3 800] [energy 99.953926 ei 0.036 es 0.000 et 0.004 er 0.006] ------- [0:0 4:0 27 4] [0] 3 0
N -t 1.043103 -n 2 -e 99.952244
N -t 1.043103 -n 4 -e 99.956913
N -t 1.043103 -n 1 -e 99.953263
r 1.043734696 _4_ MAC  --- 0 cbr 21 [13a 4 3 800] [energy 99.956913 ei 0.036 es 0.000 et 0.002 er 0.005] ------- [0:0 4:0 27 4] [0] 4 0
s 1.043744696 _4_ MAC  --- 0 ACK 38 [0 3 0 0] [energy 99.956913 ei 0.036 es 0.000 et 0.002 er 0.005] 
N -t 1.043745 -n 3 -e 99.953388
N -t 1.043746 -n 2 -e 99.952123
r 1.043759696 _4_ AGT  --- 0 cbr 21 [13a 4 3 800] [energy 99.956712 ei 0.036 es 0.000 et 0.002 er 0.005] ------- [0:0 4:0 27 4] [0] 4 0
r 1.044049488 _3_ MAC  --- 0 ACK 38 [0 3 0 0] [energy 99.953388 ei 0.036 es 0.000 et 0.004 er 0.006] 
s 2.000033958 _0_ RTR  --- 0 AOMDV 44 [0 0 0 0] [energy 99.956553 ei 0.036 es 0.000 et 0.002 er 0.005] ------- [0:255 -1:255 1 0] [0x1 0 [0 4] 8.000000] (HELLO) [0 0]
s 2.000308958 _0_ MAC  --- 0 AOMDV 102 [0 ffffffff 0 800] [energy 99.956553 ei 0.036 es 0.000 et 0.002 er 0.005] ------- [0:255 -1:255 1 0] [0x1 0 [0 4] 8.000000] (HELLO) [0 0]
N -t 2.000310 -n 1 -e 99.919461
N -t 2.000310 -n 2 -e 99.918332
r 2.001125671 _1_ MAC  --- 0 AOMDV 44 [0 ffffffff 0 800] [energy 99.919461 ei 0.069 es 0.000 et 0.004 er 0.007] ------- [0:255 -1:255 1 0] [0x1 0 [0 4] 8.000000] (HELLO) [0 0]
r 2.001150671 _1_ RTR  --- 0 AOMDV 44 [0 ffffffff 0 800] [energy 99.919461 ei 0.069 es 0.000 et 0.004 er 0.007] ------- [0:255 -1:255 1 0] [0x1 0 [0 4] 8.000000] (HELLO) [0 0]
s 2.001420466 _2_ RTR  --- 0 AOMDV 44 [0 0 0 0] [energy 99.918332 ei 0.069 es 0.000 et 0.004 er 0.008] ------- [2:255 -1:255 1 0] [0x1 0 [2 2] 8.000000] (HELLO) [0 0]
s 2.001660402 _2_ MAC  --- 0 AOMDV 102 [0 ffffffff 2 800] [energy 99.918332 ei 0.069 es 0.000 et 0.004 er 0.008] ------- [2:255 -1:255 1 0] [0x1 0 [2 2] 8.000000] (HELLO) [0 0]
N -t 2.001661 -n 1 -e 99.919120
N -t 2.001661 -n 3 -e 99.919549
N -t 2.001662 -n 0 -e 99.922128
N -t 2.001662 -n 4 -e 99.922873
r 2.002477134 _1_ MAC  --- 0 AOMDV 44 [0 ffffffff 2 800] [energy 99.919120 ei 0.069 es 0.000 et 0.004 er 0.007] ------- [2:255 -1:255 1 0] [0x1 0 [2 2] 8.000000] (HELLO) [0 0]
r 2.002477184 _3_ MAC  --- 0 AOMDV 44 [0 ffffffff 2 800] [energy 99.919549 ei 0.069 es 0.000 et 0.004 er 0.007] ------- [2:255 -1:255 1 0] [0x1 0 [2 2] 8.000000] (HELLO) [0 0]
r 2.002502134 _1_ RTR  --- 0 AOMDV 44 [0 ffffffff 2 800] [energy 99.919120 ei 0.069 es 0.000 et 0.004 er 0.007] ------- [2:255 -1:255 1 0] [0x1 0 [2 2] 8.000000] (HELLO) [0 0]
r 2.002502184 _3_ RTR  --- 0 AOMDV 44 [0 ffffffff 2 800] [energy 99.919549 ei 0.069 es 0.000 et 0.004 er 0.007] ------- [2:255 -1:255 1 0] [0x1 0 [2 2] 8.000000] (HELLO) [0 0]
s 2.008812267 _3_ RTR  --- 0 AOMDV 44 [0 0 0 0] [energy 99.919549 ei 0.069 es 0.000 et 0.004 er 0.007] ------- [3:255 -1:255 1 0] [0x1 0 [3 2] 8.000000] (HELLO) [0 0]
s 2.009167267 _3_ MAC  --- 0 AOMDV 102 [0 ffffffff 3 800] [energy 99.919549 ei 0.069 es 0.000 et 0.004 er 0.007] ------- [3:255 -1:255 1 0] [0x1 0 [3 2] 8.000000] (HELLO) [0 0]
N -t 2.009168 -n 2 -e 99.917218
N -t 2.009168 -n 4 -e 99.922316
N -t 2.009169 -n 1 -e 99.918563
r 2.009984049 _2_ MAC  --- 0 AOMDV 44 [0 ffffffff 3 800] [energy 99.917218 ei 0.069 es 0.000 et 0.005 er 0.009] ------- [3:255 -1:255 1 0] [0x1 0 [3 2] 8.000000] (HELLO) [0 0]
r 2.009984059 _4_ MAC  --- 0 AOMDV 44 [0 ffffffff 3 800] [energy 99.922316 ei 0.070 es 0.000 et 0.002 er 0.006] ------- [3:255 -1:255 1 0] [0x1 0 [3 2] 8.000000] (HELLO) [0 0]
r 2.010009049 _2_ RTR  --- 0 AOMDV 44 [0 ffffffff 3 800] [energy 99.917218 ei 0.069 es 0.000 et 0.005 er 0.009] ------- [3:255 -1:255 1 0] [0x1 0 [3 2] 8.000000] (HELLO) [0 0]
r 2.010009059 _4_ RTR  --- 0 AOMDV 44 [0 ffffffff 3 800] [energy 99.922316 ei 0.070 es 0.000 et 0.002 er 0.006] ------- [3:255 -1:255 1 0] [0x1 0 [3 2] 8.000000] (HELLO) [0 0]
s 2.044117338 _4_ RTR  --- 0 AOMDV 44 [0 0 0 0] [energy 99.922316 ei 0.070 es 0.000 et 0.002 er 0.006] ------- [4:255 -1:255 1 0] [0x1 0 [4 2] 8.000000] (HELLO) [0 0]
s 2.044672338 _4_ MAC  --- 0 AOMDV 102 [0 ffffffff 4 800] [energy 99.922316 ei 0.070 es 0.000 et 0.002 er 0.006] ------- [4:255 -1:255 1 0] [0x1 0 [4 2] 8.000000] (HELLO) [0 0]
N -t 2.044673 -n 3 -e 99.917240
N -t 2.044674 -n 2 -e 99.915682
r 2.045489130 _3_ MAC  --- 0 AOMDV 44 [0 ffffffff 4 800] [energy 99.917240 ei 0.071 es 0.000 et 0.005 er 0.007] ------- [4:255 -1:255 1 0] [0x1 0 [4 2] 8.000000] (HELLO) [0 0]
r 2.045514130 _3_ RTR  --- 0 AOMDV 44 [0 ffffffff 4 800] [energy 99.917240 ei 0.071 es 0.000 et 0.005 er 0.007] ------- [4:255 -1:255 1 0] [0x1 0 [4 2] 8.000000] (HELLO) [0 0]
s 2.055588072 _1_ RTR  --- 0 AOMDV 44 [0 0 0 0] [energy 99.918563 ei 0.069 es 0.000 et 0.004 er 0.008] ------- [1:255 -1:255 1 0] [0x1 0 [1 2] 8.000000] (HELLO) [0 0]
s 2.055983072 _1_ MAC  --- 0 AOMDV 102 [0 ffffffff 1 800] [energy 99.918563 ei 0.069 es 0.000 et 0.004 er 0.008] ------- [1:255 -1:255 1 0] [0x1 0 [1 2] 8.000000] (HELLO) [0 0]
N -t 2.055984 -n 0 -e 99.919933
N -t 2.055984 -n 2 -e 99.914992
N -t 2.055985 -n 3 -e 99.916550
r 2.056799785 _0_ MAC  --- 0 AOMDV 44 [0 ffffffff 1 800] [energy 99.919933 ei 0.071 es 0.000 et 0.003 er 0.006] ------- [1:255 -1:255 1 0] [0x1 0 [1 2] 8.000000] (HELLO) [0 0]
r 2.056799803 _2_ MAC  --- 0 AOMDV 44 [0 ffffffff 1 800] [energy 99.914992 ei 0.071 es 0.000 et 0.005 er 0.009] ------- [1:255 -1:255 1 0] [0x1 0 [1 2] 8.000000] (HELLO) [0 0]
r 2.056824785 _0_ RTR  --- 0 AOMDV 44 [0 ffffffff 1 800] [energy 99.919933 ei 0.071 es 0.000 et 0.003 er 0.006] ------- [1:255 -1:255 1 0] [0x1 0 [1 2] 8.000000] (HELLO) [0 0]
r 2.056824803 _2_ RTR  --- 0 AOMDV 44 [0 ffffffff 1 800] [energy 99.914992 ei 0.071 es 0.000 et 0.005 er 0.009] ------- [1:255 -1:255 1 0] [0x1 0 [1 2] 8.000000] (HELLO) [0 0]
s 3.002755747 _1_ RTR  --- 0 AOMDV 656 [0 0 0 0] [energy 99.916415 ei 0.071 es 0.000 et 0.005 er 0.008] ------- [1:255 -1:255 1 0] [0x3 0 [1 2] 8.000000] (HELLO) [0 0]
s 3.003130747 _1_ MAC  --- 0 AOMDV 714 [0 ffffffff 1 800] [energy 99.916415 ei 0.071 es 0.000 et 0.005 er 0.008] ------- [1:255 -1:255 1 0] [0x3 0 [1 2] 8.000000] (HELLO) [0 0]
N -t 3.003131 -n 0 -e 99.884555
N -t 3.003131 -n 2 -e 99.879614
N -t 3.003132 -n 3 -e 99.881172
r 3.008843461 _0_ MAC  --- 0 AOMDV 656 [0 ffffffff 1 800] [energy 99.884555 ei 0.104 es 0.000 et 0.003 er 0.008] ------- [1:255 -1:255 1 0] [0x3 0 [1 2] 8.000000] (HELLO) [0 0]